<event>
12    1  0.2791583E-001  0.1908499E+03  0.7546771E-02  0.1157944E+00
         21   -1    0    0  502  503  0.00000000000E+00  0.00000000000E+00  0.31656027078E+03  0.31656027078E+03  0.00000000000E+00 0. -1.
         21   -1    0    0  503  504 -0.00000000000E+00 -0.00000000000E+00 -0.16293390661E+03  0.16293390661E+03  0.00000000000E+00 0. -1.
         -6    2    1    2    0  504  0.34877434576E+02  0.69902295459E+02 -0.53881443990E+02  0.19831008024E+03  0.17412900839E+03 0.  0.
        -24    2    3    3    0    0 -0.44564163264E+02  0.48851071064E+02 -0.92268123187E+01  0.10466047989E+03  0.80599566955E+02 0.  0.
          6    2    1    2  502    0 -0.34877434576E+02 -0.69902295459E+02  0.20750780817E+03  0.28118409715E+03  0.17292264076E+03 0.  0.
         24    2    5    5    0    0  0.59406748550E+01 -0.37182145829E+02  0.21183963719E+03  0.22848133639E+03  0.76875780356E+02 0.  0.
          4    1    6    6  501    0  0.15164780530E+02 -0.21340805726E+02  0.20814065422E+03  0.20978067713E+03  0.00000000000E+00 0. -1.
         -3    1    6    6    0  501 -0.92241056755E+01 -0.15841340103E+02  0.36989829760E+01  0.18700659262E+02  0.00000000000E+00 0.  1.
          5    1    5    5  502    0 -0.40818109431E+02 -0.32720149631E+02 -0.43318290250E+01  0.52702760764E+02  0.47000000000E+01 0. -1.
         11    1    4    4    0    0  0.21791402159E+02  0.90586850654E+01  0.88505166657E+01  0.25204297817E+02  0.00000000000E+00 0. -1.
        -12    1    4    4    0    0 -0.66355565423E+02  0.39792385999E+02 -0.18077328984E+02  0.79456182072E+02  0.00000000000E+00 0.  1.
         -5    1    3    3    0  504  0.79441597840E+02  0.21051224395E+02 -0.44654631671E+02  0.93649600350E+02  0.47000000000E+01 0.  1.
<mgrwt>
<rscale>  2 0.19057428E+03</rscale>
<asrwt>0</asrwt>
<pdfrwt beam="1">  1       21 0.48701580E-01 0.19084988E+03</pdfrwt>
<pdfrwt beam="2">  1       21 0.25066755E-01 0.19084988E+03</pdfrwt>
<totfact> 0.60705026E+04</totfact>
</mgrwt>
</event>
<event>
12    1  0.2791583E-001  0.2348749E+03  0.7546771E-02  0.1123529E+00
         21   -1    0    0  502  503  0.00000000000E+00  0.00000000000E+00  0.50661386722E+02  0.50661386722E+02  0.00000000000E+00 0. -1.
         21   -1    0    0  503  504 -0.00000000000E+00 -0.00000000000E+00 -0.11457476599E+04  0.11457476599E+04  0.00000000000E+00 0. -1.
         -6    2    1    2    0  504  0.61436042181E+02  0.14381028012E+03 -0.40769641513E+03  0.47051310465E+03  0.17524391799E+03 0.  0.
        -24    2    3    3    0    0  0.90568696236E+02  0.15521495061E+03 -0.30271064728E+03  0.36086421276E+03  0.79340244803E+02 0.  0.
          6    2    1    2  502    0 -0.61436042181E+02 -0.14381028012E+03 -0.68738985802E+03  0.72589594194E+03  0.17310204411E+03 0.  0.
         24    2    5    5    0    0 -0.36764060331E+02 -0.69581721604E+02 -0.18387359115E+03  0.21631836533E+03  0.82407072162E+02 0.  0.
          2    1    6    6  501    0 -0.62839998736E+02 -0.52224762305E+02 -0.14453109570E+03  0.16602869891E+03  0.00000000000E+00 0. -1.
         -1    1    6    6    0  501  0.26075938404E+02 -0.17356959299E+02 -0.39342495454E+02  0.50289666417E+02  0.00000000000E+00 0.  1.
          5    1    5    5  502    0 -0.24671981849E+02 -0.74228558512E+02 -0.50351626687E+03  0.50957757661E+03  0.47000000000E+01 0. -1.
         11    1    4    4    0    0  0.32647773319E+01  0.69238937557E+02 -0.73967991853E+02  0.10137037567E+03  0.00000000000E+00 0. -1.
        -12    1    4    4    0    0  0.87303918904E+02  0.85976013053E+02 -0.22874265542E+03  0.25949383709E+03  0.00000000000E+00 0.  1.
         -5    1    3    3    0  504 -0.29132654055E+02 -0.11404670493E+02 -0.10498576785E+03  0.10964889189E+03  0.47000000000E+01 0.  1.
<mgrwt>
<rscale>  2 0.23447544E+03</rscale>
<asrwt>0</asrwt>
<pdfrwt beam="1">  1       21 0.77940597E-02 0.23487489E+03</pdfrwt>
<pdfrwt beam="2">  1       21 0.17626887E+00 0.23487489E+03</pdfrwt>
<totfact> 0.23573649E+04</totfact>
</mgrwt>
</event>
<event>
12    1  0.2791583E-001  0.1841069E+03  0.7546771E-02  0.1164086E+00
         21   -1    0    0  502  503  0.00000000000E+00  0.00000000000E+00  0.37445773563E+03  0.37445773563E+03  0.00000000000E+00 0.  1.
         21   -1    0    0  503  504 -0.00000000000E+00 -0.00000000000E+00 -0.99185308757E+02  0.99185308757E+02  0.00000000000E+00 0.  1.
         -6    2    1    2    0  504 -0.59751348203E+02  0.19148533285E+02  0.66259206869E+02  0.19566714942E+03  0.17308512625E+03 0.  0.
        -24    2    3    3    0    0 -0.24982301207E+02 -0.34429695809E+02  0.89393543550E+02  0.12757309098E+03  0.80462218374E+02 0.  0.
          6    2    1    2  502    0  0.59751348203E+02 -0.19148533285E+02  0.20901322000E+03  0.27797589496E+03  0.17218357095E+03 0.  0.
         24    2    5    5    0    0  0.73689872355E+02 -0.63586685294E+02  0.10770163390E+03  0.16637321002E+03  0.81283080845E+02 0.  0.
          2    1    6    6  501    0  0.42720528861E+02 -0.78758969938E+02  0.92195311788E+02  0.12856124785E+03  0.00000000000E+00 0. -1.
         -1    1    6    6    0  501  0.30969343494E+02  0.15172284644E+02  0.15506322116E+02  0.37811962172E+02  0.00000000000E+00 0.  1.
          5    1    5    5  502    0 -0.13938524152E+02  0.44438152009E+02  0.10131158610E+03  0.11160268494E+03  0.47000000000E+01 0. -1.
         11    1    4    4    0    0  0.45983378397E+01 -0.26575095586E+02 -0.57947462771E+01  0.27585494389E+02  0.00000000000E+00 0. -1.
        -12    1    4    4    0    0 -0.29580639046E+02 -0.78546002235E+01  0.95188289827E+02  0.99987596587E+02  0.00000000000E+00 0.  1.
         -5    1    3    3    0  504 -0.34769046997E+02  0.53578229094E+02 -0.23134336681E+02  0.68094058445E+02  0.47000000000E+01 0.  1.
<mgrwt>
<rscale>  2 0.18389470E+03</rscale>
<asrwt>0</asrwt>
<pdfrwt beam="1">  1       21 0.57608882E-01 0.18410690E+03</pdfrwt>
<pdfrwt beam="2">  1       21 0.15259278E-01 0.18410690E+03</pdfrwt>
<totfact> 0.10782281E+05</totfact>
</mgrwt>
</event>
<event>
12    1  0.2791583E-001  0.3062643E+03  0.7546771E-02  0.1082221E+00
         21   -1    0    0  502  503  0.00000000000E+00  0.00000000000E+00  0.94178203170E+03  0.94178203170E+03  0.00000000000E+00 0. -1.
         21   -1    0    0  503  504 -0.00000000000E+00 -0.00000000000E+00 -0.20290498214E+04  0.20290498214E+04  0.00000000000E+00 0. -1.
         -6    2    1    2    0  504  0.68469066047E+01 -0.25122943654E+03 -0.19922305429E+04  0.20156339884E+04  0.17502779580E+03 0.  0.
        -24    2    3    3    0    0  0.15272656847E+02 -0.23021044098E+03 -0.12842447770E+04  0.13072705745E+04  0.80259619742E+02 0.  0.
          6    2    1    2  502    0 -0.68469066047E+01  0.25122943654E+03  0.90496275322E+03  0.95519786467E+03  0.17401800497E+03 0.  0.
         24    2    5    5    0    0 -0.11343714986E+02  0.23094348277E+03  0.90065461609E+03  0.93346330115E+03  0.81923287311E+02 0.  0.
          2    1    6    6  501    0  0.21684786019E+01  0.23097393556E+03  0.83071052750E+03  0.86222598065E+03  0.00000000000E+00 0. -1.
         -1    1    6    6    0  501 -0.13512193588E+02 -0.30452798064E-01  0.69944088595E+02  0.71237320502E+02  0.00000000000E+00 0.  1.
          5    1    5    5  502    0  0.44968083817E+01  0.20285953769E+02  0.43081371224E+01  0.21734563520E+02  0.47000000000E+01 0. -1.
         11    1    4    4    0    0 -0.19034122682E+02 -0.17390777950E+03 -0.10219530329E+04  0.10368192779E+04  0.00000000000E+00 0. -1.
        -12    1    4    4    0    0  0.34306779529E+02 -0.56302661475E+02 -0.26229174403E+03  0.27045129654E+03  0.00000000000E+00 0.  1.
         -5    1    3    3    0  504 -0.84257502427E+01 -0.21018995559E+02 -0.70798576593E+03  0.70836341394E+03  0.47000000000E+01 0.  1.
<mgrwt>
<rscale>  2 0.30612024E+03</rscale>
<asrwt>0</asrwt>
<pdfrwt beam="1">  1       21 0.14488954E+00 0.30626433E+03</pdfrwt>
<pdfrwt beam="2">  1       21 0.31216151E+00 0.30626433E+03</pdfrwt>
<totfact> 0.79408139E+00</totfact>
</mgrwt>
</event>
<event>
12    1  0.2791583E-001  0.2947249E+03  0.7546771E-02  0.1087919E+00
         21   -1    0    0  502  503  0.00000000000E+00  0.00000000000E+00  0.78832419748E+03  0.78832419748E+03  0.00000000000E+00 0.  1.
         21   -1    0    0  503  504 -0.00000000000E+00 -0.00000000000E+00 -0.12015830929E+03  0.12015830929E+03  0.00000000000E+00 0.  1.
         -6    2    1    2    0  504  0.11549343612E+03  0.20935187271E+03  0.46511116546E+03  0.55058028769E+03  0.17217234552E+03 0.  0.
        -24    2    3    3    0    0  0.40915024527E+02  0.15231303173E+03  0.18933448317E+03  0.25922099514E+03  0.80465389708E+02 0.  0.
          6    2    1    2  502    0 -0.11549343612E+03 -0.20935187271E+03  0.20305472272E+03  0.35790221907E+03  0.17232480263E+03 0.  0.
         24    2    5    5    0    0 -0.81968803781E+02 -0.22807008556E+03  0.19332194267E+03  0.31801375616E+03  0.70883897108E+02 0.  0.
          4    1    6    6  501    0  0.39372288391E+01 -0.87363672373E+02  0.73013320596E+02  0.11392479101E+03  0.00000000000E+00 0. -1.
         -3    1    6    6    0  501 -0.85906032620E+02 -0.14070641319E+03  0.12030862207E+03  0.20408896515E+03  0.00000000000E+00 0.  1.
          5    1    5    5  502    0 -0.33524632341E+02  0.18718212851E+02  0.97327800534E+01  0.39888462912E+02  0.47000000000E+01 0. -1.
         13    1    4    4    0    0  0.10931765800E+02 -0.82471783369E+01  0.13525614799E+02  0.19247381893E+02  0.00000000000E+00 0. -1.
        -14    1    4    4    0    0  0.29983258727E+02  0.16056021006E+03  0.17580886837E+03  0.23997361325E+03  0.00000000000E+00 0.  1.
         -5    1    3    3    0  504  0.74578411594E+02  0.57038840986E+02  0.27577668230E+03  0.29135929255E+03  0.47000000000E+01 0.  1.
<mgrwt>
<rscale>  2 0.29470264E+03</rscale>
<asrwt>0</asrwt>
<pdfrwt beam="1">  1       21 0.12128064E+00 0.29472492E+03</pdfrwt>
<pdfrwt beam="2">  1       21 0.18485894E-01 0.29472492E+03</pdfrwt>
<totfact> 0.12967475E+04</totfact>
</mgrwt>
</event>
<event>
12    1  0.2791583E-001  0.3352127E+03  0.7546771E-02  0.1068954E+00
         21   -1    0    0  502  503  0.00000000000E+00  0.00000000000E+00  0.43933192071E+03  0.43933192071E+03  0.00000000000E+00 0. -1.
         21   -1    0    0  503  504 -0.00000000000E+00 -0.00000000000E+00 -0.27829383567E+03  0.27829383567E+03  0.00000000000E+00 0.  1.
         -6    2    1    2    0  504 -0.41966733410E+00 -0.28732475071E+03 -0.23245561649E+02  0.33509727335E+03  0.17086292161E+03 0.  0.
        -24    2    3    3    0    0 -0.64816843037E+02 -0.14788510862E+03 -0.22242023193E+02  0.18143040277E+03  0.79693506391E+02 0.  0.
          6    2    1    2  502    0  0.41966733410E+00  0.28732475071E+03  0.18428364668E+03  0.38252848303E+03  0.17266119830E+03 0.  0.
         24    2    5    5    0    0  0.53404679160E+02  0.15174750810E+03  0.57748503154E+02  0.18959887737E+03  0.82057776668E+02 0.  0.
          2    1    6    6  501    0  0.13160607650E+02  0.26286058995E+02  0.49515143788E+02  0.57583920981E+02  0.00000000000E+00 0. -1.
         -1    1    6    6    0  501  0.40244071510E+02  0.12546144910E+03  0.82333593660E+01  0.13201495639E+03  0.00000000000E+00 0.  1.
          5    1    5    5  502    0 -0.52985011826E+02  0.13557724261E+03  0.12653514353E+03  0.19292960566E+03  0.47000000000E+01 0. -1.
         13    1    4    4    0    0 -0.23130537581E+02 -0.62700642970E+01  0.16147096370E+02  0.28897477334E+02  0.00000000000E+00 0. -1.
        -14    1    4    4    0    0 -0.41686305455E+02 -0.14161504433E+03 -0.38389119563E+02  0.15253292544E+03  0.00000000000E+00 0.  1.
         -5    1    3    3    0  504  0.64397175702E+02 -0.13943964209E+03 -0.10035384552E+01  0.15366687058E+03  0.47000000000E+01 0.  1.
<mgrwt>
<rscale>  2 0.33498182E+03</rscale>
<asrwt>0</asrwt>
<pdfrwt beam="1">  1       21 0.67589526E-01 0.33521274E+03</pdfrwt>
<pdfrwt beam="2">  1       21 0.42814436E-01 0.33521274E+03</pdfrwt>
<totfact> 0.97349228E+03</totfact>
</mgrwt>
</event>
<event>
12    1  0.2791583E-001  0.2569569E+03  0.7546771E-02  0.1109007E+00
         21   -1    0    0  502  503  0.00000000000E+00  0.00000000000E+00  0.52594170341E+02  0.52594170341E+02  0.00000000000E+00 0. -1.
         21   -1    0    0  503  504 -0.00000000000E+00 -0.00000000000E+00 -0.12636732603E+04  0.12636732603E+04  0.00000000000E+00 0. -1.
         -6    2    1    2    0  504  0.18945934498E+03  0.26711841067E+01 -0.55030236254E+03  0.60733807579E+03  0.17356517355E+03 0.  0.
        -24    2    3    3    0    0  0.19767189859E+03  0.40965688447E+02 -0.47022598453E+03  0.51807312515E+03  0.80838848017E+02 0.  0.
          6    2    1    2  502    0 -0.18945934498E+03 -0.26711841067E+01 -0.66077672742E+03  0.70892935485E+03  0.17335791888E+03 0.  0.
         24    2    5    5    0    0 -0.18557170254E+03 -0.50558787914E+02 -0.53830189072E+03  0.57728395239E+03  0.80590249538E+02 0.  0.
          4    1    6    6  501    0 -0.10223945084E+03 -0.51111672345E+02 -0.39810738845E+03  0.41419174436E+03  0.00000000000E+00 0. -1.
         -3    1    6    6    0  501 -0.83332251700E+02  0.55288443084E+00 -0.14019450227E+03  0.16309220803E+03  0.00000000000E+00 0.  1.
          5    1    5    5  502    0 -0.38876424446E+01  0.47887603807E+02 -0.12247483671E+03  0.13164540246E+03  0.47000000000E+01 0. -1.
         13    1    4    4    0    0  0.15363987199E+03  0.55744272205E+02 -0.30009003595E+03  0.34171137503E+03  0.00000000000E+00 0. -1.
        -14    1    4    4    0    0  0.44032026600E+02 -0.14778583758E+02 -0.17013594858E+03  0.17636175011E+03  0.00000000000E+00 0.  1.
         -5    1    3    3    0  504 -0.82125536092E+01 -0.38294504340E+02 -0.80076378007E+02  0.89264950647E+02  0.47000000000E+01 0.  1.
<mgrwt>
<rscale>  2 0.25692191E+03</rscale>
<asrwt>0</asrwt>
<pdfrwt beam="1">  1       21 0.80914114E-02 0.25695690E+03</pdfrwt>
<pdfrwt beam="2">  1       21 0.19441126E+00 0.25695690E+03</pdfrwt>
<totfact> 0.16427426E+04</totfact>
</mgrwt>
</event>
<event>
12    1  0.2791583E-001  0.2092484E+03  0.7546771E-02  0.1142339E+00
         21   -1    0    0  502  503  0.00000000000E+00  0.00000000000E+00  0.82846242852E+03  0.82846242852E+03  0.00000000000E+00 0.  1.
         21   -1    0    0  503  504 -0.00000000000E+00 -0.00000000000E+00 -0.54731996666E+02  0.54731996666E+02  0.00000000000E+00 0.  1.
         -6    2    1    2    0  504 -0.11559704984E+03 -0.10739027088E+02  0.30107065461E+03  0.36664482661E+03  0.17408872790E+03 0.  0.
        -24    2    3    3    0    0 -0.36153924143E+02  0.50537918347E+02  0.10437907913E+03  0.14579252273E+03  0.80618112755E+02 0.  0.
          6    2    1    2  502    0  0.11559704984E+03  0.10739027088E+02  0.47265977725E+03  0.51654959858E+03  0.17302663994E+03 0.  0.
         24    2    5    5    0    0  0.55665792505E+02  0.51388565096E+02  0.39528387745E+03  0.41046821277E+03  0.80593702262E+02 0.  0.
          4    1    6    6  501    0 -0.15407434657E+02  0.30872366637E+02  0.91008249401E+02  0.97329304546E+02  0.00000000000E+00 0. -1.
         -3    1    6    6    0  501  0.71073227162E+02  0.20516198459E+02  0.30427562805E+03  0.31313890822E+03  0.00000000000E+00 0.  1.
          5    1    5    5  502    0  0.59931257331E+02 -0.40649538008E+02  0.77375899796E+02  0.10608138581E+03  0.47000000000E+01 0. -1.
         11    1    4    4    0    0 -0.72911452349E+01  0.62319857915E+01  0.90657186130E+02  0.91163171526E+02  0.00000000000E+00 0. -1.
        -12    1    4    4    0    0 -0.28862778908E+02  0.44305932556E+02  0.13721892995E+02  0.54629351207E+02  0.00000000000E+00 0.  1.
         -5    1    3    3    0  504 -0.79443125693E+02 -0.61276945435E+02  0.19669157548E+03  0.22085230388E+03  0.47000000000E+01 0.  1.
<mgrwt>
<rscale>  2 0.20902734E+03</rscale>
<asrwt>0</asrwt>
<pdfrwt beam="1">  1       21 0.12745575E+00 0.20924839E+03</pdfrwt>
<pdfrwt beam="2">  1       21 0.84203078E-02 0.20924839E+03</pdfrwt>
<totfact> 0.49420433E+04</totfact>
</mgrwt>
</event>
<event>
12    1  0.2791583E-001  0.1948813E+03  0.7546771E-02  0.1154202E+00
         21   -1    0    0  502  503  0.00000000000E+00  0.00000000000E+00  0.64654114007E+03  0.64654114007E+03  0.00000000000E+00 0. -1.
         21   -1    0    0  503  504 -0.00000000000E+00 -0.00000000000E+00 -0.88500775251E+02  0.88500775251E+02  0.00000000000E+00 0. -1.
         -6    2    1    2    0  504 -0.32802856205E+02 -0.84121453893E+02  0.65396305907E+02  0.20525242616E+03  0.17233524084E+03 0.  0.
        -24    2    3    3    0    0 -0.30164897909E+02 -0.11741737497E+03  0.17790241682E+02  0.14690857871E+03  0.81048607568E+02 0.  0.
          6    2    1    2  502    0  0.32802856205E+02  0.84121453893E+02  0.49264405891E+03  0.52978948916E+03  0.17270288842E+03 0.  0.
         24    2    5    5    0    0 -0.29137992881E+02  0.48122757313E+02  0.14702872693E+03  0.17679568944E+03  0.80463947592E+02 0.  0.
          4    1    6    6  501    0 -0.21719821101E+02 -0.18255475010E+02  0.25624144228E+02  0.38231005270E+02  0.00000000000E+00 0. -1.
         -3    1    6    6    0  501 -0.74181717802E+01  0.66378232323E+02  0.12140458270E+03  0.13856468417E+03  0.00000000000E+00 0.  1.
          5    1    5    5  502    0  0.61940849086E+02  0.35998696580E+02  0.34561533198E+03  0.35299379972E+03  0.47000000000E+01 0. -1.
         11    1    4    4    0    0 -0.38539036750E+02 -0.15017984988E+02  0.15411893607E+02  0.44139819792E+02  0.00000000000E+00 0. -1.
        -12    1    4    4    0    0  0.83741388406E+01 -0.10239938998E+03  0.23783480747E+01  0.10276875892E+03  0.00000000000E+00 0.  1.
         -5    1    3    3    0  504 -0.26379582958E+01  0.33295921075E+02  0.47606064225E+02  0.58343847449E+02  0.47000000000E+01 0.  1.
<mgrwt>
<rscale>  2 0.19479985E+03</rscale>
<asrwt>0</asrwt>
<pdfrwt beam="1">  1       21 0.99467864E-01 0.19488133E+03</pdfrwt>
<pdfrwt beam="2">  1       21 0.13615504E-01 0.19488133E+03</pdfrwt>
<totfact> 0.38832185E+04</totfact>
</mgrwt>
</event>
<event>
12    1  0.2791583E-001  0.1888153E+03  0.7546771E-02  0.1160585E+00
         21   -1    0    0  502  503  0.00000000000E+00  0.00000000000E+00  0.20355991173E+03  0.20355991173E+03  0.00000000000E+00 0.  1.
         21   -1    0    0  503  504 -0.00000000000E+00 -0.00000000000E+00 -0.18804304318E+03  0.18804304318E+03  0.00000000000E+00 0.  1.
         -6    2    1    2    0  504  0.61759993404E+02  0.24373350284E+02 -0.51388321693E+02  0.19128444036E+03  0.17187385062E+03 0.  0.
        -24    2    3    3    0    0  0.88307705498E+02 -0.26435166269E+02 -0.53208173798E+02  0.13373717080E+03  0.80978097214E+02 0.  0.
          6    2    1    2  502    0 -0.61759993404E+02 -0.24373350284E+02  0.66905190244E+02  0.20031851456E+03  0.17675645901E+03 0.  0.
         24    2    5    5    0    0  0.74843131678E+01  0.33256956571E+02  0.58194305633E+01  0.91370883573E+02  0.84573828628E+02 0.  0.
          2    1    6    6  501    0  0.11960758904E+01  0.46161809311E+02 -0.28435022031E+02  0.54230007508E+02  0.00000000000E+00 0. -1.
         -1    1    6    6    0  501  0.62882372774E+01 -0.12904852740E+02  0.34254452594E+02  0.37140876065E+02  0.00000000000E+00 0.  1.
          5    1    5    5  502    0 -0.69244306572E+02 -0.57630306855E+02  0.61085759681E+02  0.10894763098E+03  0.47000000000E+01 0. -1.
         13    1    4    4    0    0  0.44387219353E+02  0.12228454133E+02  0.10512585679E+02  0.47225785224E+02  0.00000000000E+00 0. -1.
        -14    1    4    4    0    0  0.43920486145E+02 -0.38663620401E+02 -0.63720759478E+02  0.86511385575E+02  0.00000000000E+00 0.  1.
         -5    1    3    3    0  504 -0.26547712094E+02  0.50808516553E+02  0.18198521054E+01  0.57547269556E+02  0.47000000000E+01 0.  1.
<mgrwt>
<rscale>  2 0.18766408E+03</rscale>
<asrwt>0</asrwt>
<pdfrwt beam="1">  1       21 0.31316909E-01 0.18881526E+03</pdfrwt>
<pdfrwt beam="2">  1       21 0.28929699E-01 0.18881526E+03</pdfrwt>
<totfact> 0.11221286E+05</totfact>
</mgrwt>
</event>
<event>
12    1  0.2791583E-001  0.2500561E+03  0.7546771E-02  0.1113412E+00
         21   -1    0    0  502  503  0.00000000000E+00  0.00000000000E+00  0.18784579067E+03  0.18784579067E+03  0.00000000000E+00 0. -1.
         21   -1    0    0  503  504 -0.00000000000E+00 -0.00000000000E+00 -0.49916596633E+03  0.49916596633E+03  0.00000000000E+00 0. -1.
         -6    2    1    2    0  504  0.88027202156E+02  0.15716995724E+03 -0.35482558823E+03  0.43408438777E+03  0.17342685451E+03 0.  0.
        -24    2    3    3    0    0  0.10864683189E+03  0.90146257099E+02 -0.31296082396E+03  0.35227916790E+03  0.78902807629E+02 0.  0.
          6    2    1    2  502    0 -0.88027202156E+02 -0.15716995724E+03  0.43505412576E+02  0.25292736922E+03  0.17212887439E+03 0.  0.
         24    2    5    5    0    0 -0.10075765335E+03 -0.90811148034E+02  0.78762077444E+02  0.17656849047E+03  0.81081426163E+02 0.  0.
          4    1    6    6  501    0 -0.53316139799E+02 -0.85717223760E+02  0.80055345057E+02  0.12883676294E+03  0.00000000000E+00 0. -1.
         -3    1    6    6    0  501 -0.47441513547E+02 -0.50939242747E+01 -0.12932676133E+01  0.47731727533E+02  0.00000000000E+00 0.  1.
          5    1    5    5  502    0  0.12730451190E+02 -0.66358809207E+02 -0.35256664868E+02  0.76358878753E+02  0.47000000000E+01 0. -1.
         11    1    4    4    0    0  0.59657730885E+02  0.95099020467E+02 -0.20877673401E+03  0.23704555092E+03  0.00000000000E+00 0. -1.
        -12    1    4    4    0    0  0.48989101007E+02 -0.49527633684E+01 -0.10418408995E+03  0.11523361697E+03  0.00000000000E+00 0.  1.
         -5    1    3    3    0  504 -0.20619629737E+02  0.67023700143E+02 -0.41864764275E+02  0.81805219877E+02  0.47000000000E+01 0.  1.
<mgrwt>
<rscale>  2 0.24983119E+03</rscale>
<asrwt>0</asrwt>
<pdfrwt beam="1">  1       21 0.28899352E-01 0.25005611E+03</pdfrwt>
<pdfrwt beam="2">  1       21 0.76794764E-01 0.25005611E+03</pdfrwt>
<totfact> 0.16724233E+04</totfact>
</mgrwt>
</event>
<event>
12    1  0.2791583E-001  0.1774748E+03  0.7546771E-02  0.1170294E+00
         21   -1    0    0  502  503  0.00000000000E+00  0.00000000000E+00  0.22633931409E+04  0.22633931409E+04  0.00000000000E+00 0. -1.
         21   -1    0    0  503  504 -0.00000000000E+00 -0.00000000000E+00 -0.22039933237E+02  0.22039933237E+02  0.00000000000E+00 0. -1.
         -6    2    1    2    0  504  0.16817127749E+02 -0.34301136610E+02  0.42676799778E+03  0.46219932720E+03  0.17331448405E+03 0.  0.
        -24    2    3    3    0    0  0.31994254242E+02 -0.37875961627E+02  0.10993867818E+03  0.14495173888E+03  0.80413138664E+02 0.  0.
          6    2    1    2  502    0 -0.16817127749E+02  0.34301136610E+02  0.18145852099E+04  0.18232337470E+04  0.17321209042E+03 0.  0.
         24    2    5    5    0    0 -0.59090810717E+02 -0.13914858375E+00  0.62663407270E+03  0.63402258324E+03  0.76306170890E+02 0.  0.
          2    1    6    6  501    0 -0.63370750950E+02  0.24563785416E+02  0.52307432645E+03  0.52747130976E+03  0.00000000000E+00 0. -1.
         -1    1    6    6    0  501  0.42799402326E+01 -0.24702933999E+02  0.10355974625E+03  0.10655127348E+03  0.00000000000E+00 0.  1.
          5    1    5    5  502    0  0.42273682968E+02  0.34440285193E+02  0.11879511372E+04  0.11892111637E+04  0.47000000000E+01 0. -1.
         13    1    4    4    0    0  0.29457960275E+02 -0.79796929934E+01 -0.48598276758E+00  0.30523484452E+02  0.00000000000E+00 0. -1.
        -14    1    4    4    0    0  0.25362939669E+01 -0.29896268634E+02  0.11042466095E+03  0.11442825443E+03  0.00000000000E+00 0.  1.
         -5    1    3    3    0  504 -0.15177126492E+02  0.35748250176E+01  0.31682931959E+03  0.31724758832E+03  0.47000000000E+01 0.  1.
<mgrwt>
<rscale>  2 0.17744977E+03</rscale>
<asrwt>0</asrwt>
<pdfrwt beam="1">  1       21 0.34821415E+00 0.17747477E+03</pdfrwt>
<pdfrwt beam="2">  1       21 0.33907607E-02 0.17747477E+03</pdfrwt>
<totfact> 0.94287425E+03</totfact>
</mgrwt>
</event>
<event>
12    1  0.2791583E-001  0.2462990E+03  0.7546771E-02  0.1116836E+00
         21   -1    0    0  502  503  0.00000000000E+00  0.00000000000E+00  0.33183006596E+03  0.33183006596E+03  0.00000000000E+00 0. -1.
         21   -1    0    0  503  504 -0.00000000000E+00 -0.00000000000E+00 -0.19621123320E+03  0.19621123320E+03  0.00000000000E+00 0. -1.
         -6    2    1    2    0  504  0.14854937396E+03  0.93372023069E+02  0.14832472559E+03  0.28141482765E+03  0.16250793767E+03 0.  0.
        -24    2    3    3    0    0  0.98157373150E+02  0.72059082882E+02  0.32198194613E+02  0.15295839005E+03  0.86788040767E+02 0.  0.
          6    2    1    2  502    0 -0.14854937396E+03 -0.93372023069E+02 -0.12705892833E+02  0.24662647152E+03  0.17285232293E+03 0.  0.
         24    2    5    5    0    0 -0.42532524958E+02 -0.63284865245E+02  0.49020580277E+02  0.12022608852E+03  0.78976611870E+02 0.  0.
          4    1    6    6  501    0  0.80449758066E+01 -0.33284266136E+02 -0.11227246323E+02  0.36036302085E+02  0.00000000000E+00 0. -1.
         -3    1    6    6    0  501 -0.50577500764E+02 -0.30000599109E+02  0.60247826600E+02  0.84189786438E+02  0.00000000000E+00 0.  1.
          5    1    5    5  502    0 -0.10601684900E+03 -0.30087157824E+02 -0.61726473110E+02  0.12640038299E+03  0.47000000000E+01 0. -1.
         13    1    4    4    0    0  0.42941308967E+01 -0.39714694833E+01  0.31627715461E+02  0.32164025172E+02  0.00000000000E+00 0. -1.
        -14    1    4    4    0    0  0.93863242253E+02  0.76030552365E+02  0.57047915237E+00  0.12079436488E+03  0.00000000000E+00 0.  1.
         -5    1    3    3    0  504  0.50392000809E+02  0.21312940187E+02  0.11612653097E+03  0.12845643760E+03  0.47000000000E+01 0.  1.
<mgrwt>
<rscale>  2 0.24449266E+03</rscale>
<asrwt>0</asrwt>
<pdfrwt beam="1">  1       21 0.51050779E-01 0.24629896E+03</pdfrwt>
<pdfrwt beam="2">  1       21 0.30186344E-01 0.24629896E+03</pdfrwt>
<totfact> 0.37435246E+04</totfact>
</mgrwt>
</event>
<event>
12    1  0.2791583E-001  0.1916762E+03  0.7546771E-02  0.1157243E+00
         21   -1    0    0  502  503  0.00000000000E+00  0.00000000000E+00  0.72063427172E+02  0.72063427172E+02  0.00000000000E+00 0. -1.
         21   -1    0    0  503  504 -0.00000000000E+00 -0.00000000000E+00 -0.53271723652E+03  0.53271723652E+03  0.00000000000E+00 0. -1.
         -6    2    1    2    0  504 -0.60109169195E+02 -0.53827213644E+02 -0.29675306882E+03  0.35258384515E+03  0.17246014862E+03 0.  0.
        -24    2    3    3    0    0  0.13208299034E+02 -0.69839974934E+02 -0.21936510379E+03  0.24468182107E+03  0.81829478403E+02 0.  0.
          6    2    1    2  502    0  0.60109169195E+02  0.53827213644E+02 -0.16390074053E+03  0.25219681854E+03  0.17386575679E+03 0.  0.
         24    2    5    5    0    0  0.92416629704E+02  0.66731671196E+01 -0.14808134714E+03  0.19270211865E+03  0.81367417039E+02 0.  0.
          2    1    6    6  501    0  0.49220577904E+02 -0.91972089161E+01 -0.15585566287E+02  0.52442004325E+02  0.00000000000E+00 0. -1.
         -1    1    6    6    0  501  0.43196051800E+02  0.15870376036E+02 -0.13249578085E+03  0.14026011432E+03  0.00000000000E+00 0.  1.
          5    1    5    5  502    0 -0.32307460509E+02  0.47154046525E+02 -0.15819393396E+02  0.59494699895E+02  0.47000000000E+01 0. -1.
         13    1    4    4    0    0  0.68391337807E+01 -0.20687958652E+02 -0.18019924893E+03  0.18151180319E+03  0.00000000000E+00 0. -1.
        -14    1    4    4    0    0  0.63691652534E+01 -0.49152016282E+02 -0.39165854862E+02  0.63170017870E+02  0.00000000000E+00 0.  1.
         -5    1    3    3    0  504 -0.73317468230E+02  0.16012761289E+02 -0.77387965026E+02  0.10790202409E+03  0.47000000000E+01 0.  1.
<mgrwt>
<rscale>  2 0.19135693E+03</rscale>
<asrwt>0</asrwt>
<pdfrwt beam="1">  1       21 0.11086682E-01 0.19167624E+03</pdfrwt>
<pdfrwt beam="2">  1       21 0.81956495E-01 0.19167624E+03</pdfrwt>
<totfact> 0.88038754E+04</totfact>
</mgrwt>
</event>
<event>
12    1  0.2791583E-001  0.3211852E+03  0.7546771E-02  0.1075367E+00
         21   -1    0    0  502  503  0.00000000000E+00  0.00000000000E+00  0.46099643272E+03  0.46099643272E+03  0.00000000000E+00 0.  1.
         21   -1    0    0  503  504 -0.00000000000E+00 -0.00000000000E+00 -0.44437655176E+03  0.44437655176E+03  0.00000000000E+00 0. -1.
         -6    2    1    2    0  504  0.25987056819E+03  0.76337553239E+02 -0.31179707008E+03  0.44600645471E+03  0.16835738918E+03 0.  0.
        -24    2    3    3    0    0  0.15996663635E+03  0.56663709610E+02 -0.11314089174E+03  0.22272586238E+03  0.89475402524E+02 0.  0.
          6    2    1    2  502    0 -0.25987056819E+03 -0.76337553239E+02  0.32841695104E+03  0.45936652977E+03  0.17262612981E+03 0.  0.
         24    2    5    5    0    0 -0.14514879386E+03 -0.54269696482E+01  0.98301154048E+02  0.19259927841E+03  0.79584802557E+02 0.  0.
          2    1    6    6  501    0 -0.79100150600E+02  0.15262913409E+02  0.11180210730E+02  0.81331343666E+02  0.00000000000E+00 0. -1.
         -1    1    6    6    0  501 -0.66048643262E+02 -0.20689883057E+02  0.87120943318E+02  0.11126793474E+03  0.00000000000E+00 0.  1.
          5    1    5    5  502    0 -0.11472177432E+03 -0.70910583590E+02  0.23011579700E+03  0.26676725136E+03  0.47000000000E+01 0. -1.
         11    1    4    4    0    0  0.51079116338E+02  0.29741150012E+02 -0.90820118251E+02  0.10836007572E+03  0.00000000000E+00 0. -1.
        -12    1    4    4    0    0  0.10888752001E+03  0.26922559597E+02 -0.22320773484E+02  0.11436578666E+03  0.00000000000E+00 0.  1.
         -5    1    3    3    0  504  0.99903931835E+02  0.19673843629E+02 -0.19865617835E+03  0.22328059234E+03  0.47000000000E+01 0.  1.
<mgrwt>
<rscale>  2 0.32061516E+03</rscale>
<asrwt>0</asrwt>
<pdfrwt beam="1">  1       21 0.70922529E-01 0.32118517E+03</pdfrwt>
<pdfrwt beam="2">  1       21 0.68365623E-01 0.32118517E+03</pdfrwt>
<totfact> 0.32311188E+03</totfact>
</mgrwt>
</event>
<event>
12    1  0.2791583E-001  0.1758161E+03  0.7546771E-02  0.1172100E+00
         21   -1    0    0  502  503  0.00000000000E+00  0.00000000000E+00  0.82930304371E+02  0.82930304371E+02  0.00000000000E+00 0.  1.
         21   -1    0    0  503  504 -0.00000000000E+00 -0.00000000000E+00 -0.38787682151E+03  0.38787682151E+03  0.00000000000E+00 0.  1.
         -6    2    1    2    0  504 -0.11242484186E+02  0.26022128106E+02 -0.10330697436E+03  0.20328175573E+03  0.17276457003E+03 0.  0.
        -24    2    3    3    0    0  0.58387708759E+02  0.16452303543E+02 -0.37223620716E+02  0.10669477451E+03  0.79488201279E+02 0.  0.
          6    2    1    2  502    0  0.11242484186E+02 -0.26022128106E+02 -0.20163954278E+03  0.26752537015E+03  0.17351591818E+03 0.  0.
         24    2    5    5    0    0  0.16266420260E+00 -0.68706311060E+02 -0.19673567793E+03  0.22290654256E+03  0.79131637841E+02 0.  0.
          4    1    6    6  501    0 -0.15478812223E+02 -0.82416676188E+02 -0.15288582997E+03  0.17437367676E+03  0.00000000000E+00 0. -1.
         -3    1    6    6    0  501  0.15641476425E+02  0.13710365128E+02 -0.43849847959E+02  0.48532865800E+02  0.00000000000E+00 0.  1.
          5    1    5    5  502    0  0.11079819983E+02  0.42684182954E+02 -0.49038648499E+01  0.44618827593E+02  0.47000000000E+01 0. -1.
         13    1    4    4    0    0  0.44053975471E+02 -0.26059739614E+02 -0.34545301132E+02  0.61751442200E+02  0.00000000000E+00 0. -1.
        -14    1    4    4    0    0  0.14333733288E+02  0.42512043157E+02 -0.26783195848E+01  0.44943332310E+02  0.00000000000E+00 0.  1.
         -5    1    3    3    0  504 -0.69630192944E+02  0.95698245634E+01 -0.66083353643E+02  0.96586981216E+02  0.47000000000E+01 0.  1.
<mgrwt>
<rscale>  2 0.17563049E+03</rscale>
<asrwt>0</asrwt>
<pdfrwt beam="1">  1       21 0.12758508E-01 0.17581615E+03</pdfrwt>
<pdfrwt beam="2">  1       21 0.59673357E-01 0.17581615E+03</pdfrwt>
<totfact> 0.13863452E+05</totfact>
</mgrwt>
</event>
<event>
12    1  0.2791583E-001  0.1897097E+03  0.7546771E-02  0.1159138E+00
         21   -1    0    0  502  503  0.00000000000E+00  0.00000000000E+00  0.18449400412E+02  0.18449400412E+02  0.00000000000E+00 0. -1.
         21   -1    0    0  503  504 -0.00000000000E+00 -0.00000000000E+00 -0.19397902738E+04  0.19397902738E+04  0.00000000000E+00 0. -1.
         -6    2    1    2    0  504 -0.74644142312E+02 -0.20920888355E+02 -0.89405812656E+03  0.91358680757E+03  0.17114756716E+03 0.  0.
        -24    2    3    3    0    0 -0.23561417497E+02  0.27401164976E+02 -0.32333973823E+03  0.33853373663E+03  0.93544322566E+02 0.  0.
          6    2    1    2  502    0  0.74644142312E+02  0.20920888355E+02 -0.10272827468E+04  0.10446528666E+04  0.17314831303E+03 0.  0.
         24    2    5    5    0    0  0.23665376620E+02  0.51788518475E+02 -0.32640063830E+03  0.34122592289E+03  0.81582186013E+02 0.  0.
          2    1    6    6  501    0  0.40637308260E+02  0.63254804192E+02 -0.21036673446E+03  0.22339812900E+03  0.00000000000E+00 0. -1.
         -1    1    6    6    0  501 -0.16971931640E+02 -0.11466285717E+02 -0.11603390384E+03  0.11782779389E+03  0.00000000000E+00 0.  1.
          5    1    5    5  502    0  0.50978765692E+02 -0.30867630120E+02 -0.70088210848E+03  0.70342694371E+03  0.47000000000E+01 0. -1.
         11    1    4    4    0    0 -0.14055956280E+02 -0.32367783171E+02 -0.17119329570E+03  0.17479241341E+03  0.00000000000E+00 0. -1.
        -12    1    4    4    0    0 -0.95054612171E+01  0.59768948147E+02 -0.15214644253E+03  0.16374132322E+03  0.00000000000E+00 0.  1.
         -5    1    3    3    0  504 -0.51082724815E+02 -0.48322053331E+02 -0.57071838833E+03  0.57505307094E+03  0.47000000000E+01 0.  1.
<mgrwt>
<rscale>  2 0.18925197E+03</rscale>
<asrwt>0</asrwt>
<pdfrwt beam="1">  1       21 0.28383686E-02 0.18970970E+03</pdfrwt>
<pdfrwt beam="2">  1       21 0.29842935E+00 0.18970970E+03</pdfrwt>
<totfact> 0.24237264E+04</totfact>
</mgrwt>
</event>
<event>
12    1  0.2791583E-001  0.3425500E+03  0.7546771E-02  0.1066343E+00
         21   -1    0    0  502  503  0.00000000000E+00  0.00000000000E+00  0.30269174431E+03  0.30269174431E+03  0.00000000000E+00 0.  1.
         21   -1    0    0  503  504 -0.00000000000E+00 -0.00000000000E+00 -0.54755527165E+03  0.54755527165E+03  0.00000000000E+00 0.  1.
         -6    2    1    2    0  504  0.18335813835E+03  0.22305118574E+03 -0.35762521298E+03  0.49521339335E+03  0.18430538147E+03 0.  0.
        -24    2    3    3    0    0  0.18600728309E+03  0.20124345578E+03 -0.37196127633E+03  0.46856366978E+03  0.78096630487E+02 0.  0.
          6    2    1    2  502    0 -0.18335813835E+03 -0.22305118574E+03  0.11276168564E+03  0.35503362260E+03  0.17309430110E+03 0.  0.
         24    2    5    5    0    0 -0.17918165435E+03 -0.16894483279E+03  0.13981361167E+03  0.29421555662E+03  0.79790513017E+02 0.  0.
          4    1    6    6  501    0 -0.14033396378E+03 -0.12174828731E+03  0.63280845608E+02  0.19626699232E+03  0.00000000000E+00 0. -1.
         -3    1    6    6    0  501 -0.38847690568E+02 -0.47196545488E+02  0.76532766060E+02  0.97948564304E+02  0.00000000000E+00 0.  1.
          5    1    5    5  502    0 -0.41764840021E+01 -0.54106352945E+02 -0.27051926032E+02  0.60818065980E+02  0.47000000000E+01 0. -1.
         13    1    4    4    0    0 -0.57848860994E+01 -0.13803294996E+01 -0.81119405147E+01  0.10058518560E+02  0.00000000000E+00 0. -1.
        -14    1    4    4    0    0  0.19179216919E+03  0.20262378528E+03 -0.36384933582E+03  0.45850515122E+03  0.00000000000E+00 0.  1.
         -5    1    3    3    0  504 -0.26491447404E+01  0.21807729961E+02  0.14336063353E+02  0.26649723570E+02  0.47000000000E+01 0.  1.
<mgrwt>
<rscale>  2 0.34106556E+03</rscale>
<asrwt>0</asrwt>
<pdfrwt beam="1">  1       21 0.46567961E-01 0.34255001E+03</pdfrwt>
<pdfrwt beam="2">  1       21 0.84239272E-01 0.34255001E+03</pdfrwt>
<totfact> 0.49440906E+03</totfact>
</mgrwt>
</event>
<event>
12    1  0.2791583E-001  0.2026422E+03  0.7546771E-02  0.1147575E+00
         21   -1    0    0  502  503  0.00000000000E+00  0.00000000000E+00  0.34046392372E+03  0.34046392372E+03  0.00000000000E+00 0. -1.
         21   -1    0    0  503  504 -0.00000000000E+00 -0.00000000000E+00 -0.22491402540E+03  0.22491402540E+03  0.00000000000E+00 0.  1.
         -6    2    1    2    0  504 -0.31815972713E+02  0.10280516409E+03 -0.13487240664E+03  0.24323637726E+03  0.17144156808E+03 0.  0.
        -24    2    3    3    0    0 -0.28308239432E+02  0.12755973764E+03 -0.14927163779E+03  0.21400418675E+03  0.80267845436E+02 0.  0.
          6    2    1    2  502    0  0.31815972713E+02 -0.10280516409E+03  0.25042230496E+03  0.32214157186E+03  0.17170528127E+03 0.  0.
         24    2    5    5    0    0 -0.45342297545E+02 -0.38141750918E+02  0.14912409800E+03  0.17924940131E+03  0.79885131003E+02 0.  0.
          4    1    6    6  501    0 -0.47145413891E+01 -0.18950282954E+02  0.12820897116E+03  0.12968762628E+03  0.00000000000E+00 0. -1.
         -3    1    6    6    0  501 -0.40627756156E+02 -0.19191467964E+02  0.20915126835E+02  0.49561775023E+02  0.00000000000E+00 0.  1.
          5    1    5    5  502    0  0.77158270258E+02 -0.64663413173E+02  0.10129820696E+03  0.14289217056E+03  0.47000000000E+01 0. -1.
         13    1    4    4    0    0 -0.16087738009E+02  0.98216848550E+02 -0.53286583955E+02  0.11289297889E+03  0.00000000000E+00 0. -1.
        -14    1    4    4    0    0 -0.12220501423E+02  0.29342889095E+02 -0.95985053831E+02  0.10111120786E+03  0.00000000000E+00 0.  1.
         -5    1    3    3    0  504 -0.35077332811E+01 -0.24754573554E+02  0.14399231141E+02  0.29232190511E+02  0.47000000000E+01 0.  1.
<mgrwt>
<rscale>  2 0.20258633E+03</rscale>
<asrwt>0</asrwt>
<pdfrwt beam="1">  1       21 0.52379065E-01 0.20264220E+03</pdfrwt>
<pdfrwt beam="2">  1       21 0.34602158E-01 0.20264220E+03</pdfrwt>
<totfact> 0.27674829E+04</totfact>
</mgrwt>
</event>
<event>
12    1  0.2791583E-001  0.2001557E+03  0.7546771E-02  0.1150660E+00
         21   -1    0    0  502  503  0.00000000000E+00  0.00000000000E+00  0.32979058276E+03  0.32979058276E+03  0.00000000000E+00 0.  1.
         21   -1    0    0  503  504 -0.00000000000E+00 -0.00000000000E+00 -0.13048617494E+03  0.13048617494E+03  0.00000000000E+00 0. -1.
         -6    2    1    2    0  504  0.12948288740E+02 -0.10001930429E+03  0.16825112817E+03  0.25772650131E+03  0.16716156238E+03 0.  0.
        -24    2    3    3    0    0  0.60586725063E+02 -0.95907717939E+02  0.10062090003E+03  0.17476709247E+03  0.86890330147E+02 0.  0.
          6    2    1    2  502    0 -0.12948288740E+02  0.10001930429E+03  0.31053279646E+02  0.20255025639E+03  0.17288950453E+03 0.  0.
         24    2    5    5    0    0  0.15502782472E+02  0.12748923092E+03  0.48283250677E+02  0.15915645241E+03  0.80657695130E+02 0.  0.
          2    1    6    6  501    0  0.45407243368E+02  0.60181810722E+02  0.39124317838E+02  0.84937508430E+02  0.00000000000E+00 0. -1.
         -1    1    6    6    0  501 -0.29904460896E+02  0.67307420194E+02  0.91589328394E+01  0.74218943979E+02  0.00000000000E+00 0.  1.
          5    1    5    5  502    0 -0.28451071213E+02 -0.27469926628E+02 -0.17229971031E+02  0.43393803980E+02  0.47000000000E+01 0. -1.
         11    1    4    4    0    0  0.24338349182E+02  0.12172608398E+02  0.94849544928E+01  0.28818258064E+02  0.00000000000E+00 0. -1.
        -12    1    4    4    0    0  0.36248375881E+02 -0.10808032634E+03  0.91135945536E+02  0.14594883440E+03  0.00000000000E+00 0.  1.
         -5    1    3    3    0  504 -0.47638436322E+02 -0.41115863479E+01  0.67630228136E+02  0.82959408841E+02  0.47000000000E+01 0.  1.
<mgrwt>
<rscale>  2 0.19891258E+03</rscale>
<asrwt>0</asrwt>
<pdfrwt beam="1">  1       21 0.50737012E-01 0.20015569E+03</pdfrwt>
<pdfrwt beam="2">  1       21 0.20074796E-01 0.20015569E+03</pdfrwt>
<totfact> 0.84447305E+04</totfact>
</mgrwt>
</event>
<event>
12    1  0.2791583E-001  0.2104616E+03  0.7546771E-02  0.1141312E+00
         21   -1    0    0  502  503  0.00000000000E+00  0.00000000000E+00  0.18620084600E+04  0.18620084600E+04  0.00000000000E+00 0.  1.
         21   -1    0    0  503  504 -0.00000000000E+00 -0.00000000000E+00 -0.27592690362E+02  0.27592690362E+02  0.00000000000E+00 0.  1.
         -6    2    1    2    0  504 -0.11472319156E+03  0.31263688802E+02  0.56452523056E+03  0.60248056894E+03  0.17365273131E+03 0.  0.
        -24    2    3    3    0    0 -0.32822082905E+02  0.17118384467E+02  0.13249871556E+03  0.16250684143E+03  0.86499917189E+02 0.  0.
          6    2    1    2  502    0  0.11472319156E+03 -0.31263688802E+02  0.12698905391E+04  0.12871205815E+04  0.17296988456E+03 0.  0.
         24    2    5    5    0    0  0.10355923001E+03  0.35971961465E+02  0.97479526205E+03  0.98422030208E+03  0.80282650515E+02 0.  0.
          4    1    6    6  501    0  0.27065522963E+02  0.30537838675E+02  0.61454933478E+03  0.61590257915E+03  0.00000000000E+00 0. -1.
         -3    1    6    6    0  501  0.76493707045E+02  0.54341227892E+01  0.36024592727E+03  0.36831772293E+03  0.00000000000E+00 0.  1.
          5    1    5    5  502    0  0.11163961553E+02 -0.67235650267E+02  0.29509527707E+03  0.30290027939E+03  0.47000000000E+01 0. -1.
         13    1    4    4    0    0  0.46834397205E+01  0.33991806398E+02  0.11083233470E+03  0.11602234235E+03  0.00000000000E+00 0. -1.
        -14    1    4    4    0    0 -0.37505522626E+02 -0.16873421932E+02  0.21666380862E+02  0.46484499081E+02  0.00000000000E+00 0.  1.
         -5    1    3    3    0  504 -0.81901108656E+02  0.14145304335E+02  0.43202651500E+03  0.43997372751E+03  0.47000000000E+01 0.  1.
<mgrwt>
<rscale>  2 0.21032073E+03</rscale>
<asrwt>0</asrwt>
<pdfrwt beam="1">  1       21 0.28646274E+00 0.21046164E+03</pdfrwt>
<pdfrwt beam="2">  1       21 0.42450308E-02 0.21046164E+03</pdfrwt>
<totfact> 0.14236366E+04</totfact>
</mgrwt>
</event>
<event>
12    1  0.2791583E-001  0.2225015E+03  0.7546771E-02  0.1132213E+00
         21   -1    0    0  502  503  0.00000000000E+00  0.00000000000E+00  0.16652726640E+03  0.16652726640E+03  0.00000000000E+00 0.  1.
         21   -1    0    0  503  504 -0.00000000000E+00 -0.00000000000E+00 -0.41051444223E+03  0.41051444223E+03  0.00000000000E+00 0.  1.
         -6    2    1    2    0  504  0.10548286652E+03  0.89541971042E+02 -0.27419973424E+03  0.35249837015E+03  0.17298903721E+03 0.  0.
        -24    2    3    3    0    0  0.25250203291E+02  0.82073531515E+02 -0.23496901689E+03  0.26275319189E+03  0.80344032815E+02 0.  0.
          6    2    1    2  502    0 -0.10548286652E+03 -0.89541971042E+02  0.30212558414E+02  0.22454333848E+03  0.17424842170E+03 0.  0.
         24    2    5    5    0    0 -0.83138764357E+02  0.64028656760E+00 -0.22245761075E+02  0.11774416352E+03  0.80351415988E+02 0.  0.
          4    1    6    6  501    0 -0.47794826055E+02  0.53904378513E+01 -0.52338349921E+02  0.71082382419E+02  0.00000000000E+00 0. -1.
         -3    1    6    6    0  501 -0.35343938301E+02 -0.47501512837E+01  0.30092588847E+02  0.46661781099E+02  0.00000000000E+00 0.  1.
          5    1    5    5  502    0 -0.22344102160E+02 -0.90182257609E+02  0.52458319489E+02  0.10679917496E+03  0.47000000000E+01 0. -1.
         13    1    4    4    0    0 -0.14747555586E+02  0.34474902662E+02 -0.16475935229E+03  0.16897234530E+03  0.00000000000E+00 0. -1.
        -14    1    4    4    0    0  0.39997758877E+02  0.47598628853E+02 -0.70209664596E+02  0.93780846587E+02  0.00000000000E+00 0.  1.
         -5    1    3    3    0  504  0.80232663226E+02  0.74684395264E+01 -0.39230717348E+02  0.89745178260E+02  0.47000000000E+01 0.  1.
<mgrwt>
<rscale>  2 0.22225486E+03</rscale>
<asrwt>0</asrwt>
<pdfrwt beam="1">  1       21 0.25619579E-01 0.22250149E+03</pdfrwt>
<pdfrwt beam="2">  1       21 0.63156068E-01 0.22250149E+03</pdfrwt>
<totfact> 0.33014413E+04</totfact>
</mgrwt>
</event>
<event>
12    1  0.2791583E-001  0.2009319E+03  0.7546771E-02  0.1149087E+00
         21   -1    0    0  502  503  0.00000000000E+00  0.00000000000E+00  0.14110828993E+03  0.14110828993E+03  0.00000000000E+00 0. -1.
         21   -1    0    0  503  504 -0.00000000000E+00 -0.00000000000E+00 -0.29304858830E+03  0.29304858830E+03  0.00000000000E+00 0. -1.
         -6    2    1    2    0  504 -0.94029963351E+02  0.39062866793E+02 -0.11154943507E+03  0.22981931049E+03  0.17322268166E+03 0.  0.
        -24    2    3    3    0    0 -0.84062089079E+01  0.22933748143E+02  0.32806397845E+01  0.85598605031E+02  0.81974004622E+02 0.  0.
          6    2    1    2  502    0  0.94029963351E+02 -0.39062866793E+02 -0.40390863298E+02  0.20433756774E+03  0.17249602367E+03 0.  0.
         24    2    5    5    0    0  0.19397171937E+02 -0.74071404211E+02 -0.43853595409E+02  0.12169537657E+03  0.83808135932E+02 0.  0.
          4    1    6    6  501    0  0.45730264096E+02 -0.70801931967E+02 -0.44169173015E+02  0.95158218086E+02  0.00000000000E+00 0. -1.
         -3    1    6    6    0  501 -0.26333092159E+02 -0.32694722440E+01  0.31557760556E+00  0.26537158488E+02  0.00000000000E+00 0.  1.
          5    1    5    5  502    0  0.74632791414E+02  0.35008537418E+02  0.34627321105E+01  0.82642191162E+02  0.47000000000E+01 0. -1.
         11    1    4    4    0    0 -0.15939366213E+02  0.23614736232E+02 -0.35822374503E+02  0.45770751334E+02  0.00000000000E+00 0. -1.
        -12    1    4    4    0    0  0.75331573051E+01 -0.68098808855E+00  0.39103014288E+02  0.39827853698E+02  0.00000000000E+00 0.  1.
         -5    1    3    3    0  504 -0.85623754443E+02  0.16129118650E+02 -0.11483007485E+03  0.14422070546E+03  0.47000000000E+01 0.  1.
<mgrwt>
<rscale>  2 0.20077522E+03</rscale>
<asrwt>0</asrwt>
<pdfrwt beam="1">  1       21 0.21708968E-01 0.20093193E+03</pdfrwt>
<pdfrwt beam="2">  1       21 0.45084398E-01 0.20093193E+03</pdfrwt>
<totfact> 0.93115240E+04</totfact>
</mgrwt>
</event>
<event>
12    1  0.2791583E-001  0.2211632E+03  0.7546771E-02  0.1133237E+00
         21   -1    0    0  502  503  0.00000000000E+00  0.00000000000E+00  0.15096871036E+03  0.15096871036E+03  0.00000000000E+00 0.  1.
         21   -1    0    0  503  504 -0.00000000000E+00 -0.00000000000E+00 -0.50008225577E+03  0.50008225577E+03  0.00000000000E+00 0.  1.
         -6    2    1    2    0  504 -0.12305777800E+03 -0.61677911338E+02 -0.36836268030E+03  0.42905164170E+03  0.17160089023E+03 0.  0.
        -24    2    3    3    0    0 -0.11030530831E+03  0.12156680872E+02 -0.27596993844E+03  0.31000257097E+03  0.87333505354E+02 0.  0.
          6    2    1    2  502    0  0.12305777800E+03  0.61677911338E+02  0.19249134899E+02  0.22199932444E+03  0.17310629504E+03 0.  0.
         24    2    5    5    0    0  0.98670611285E+02 -0.22142062026E+02 -0.56877121847E+01  0.13109025901E+03  0.83223467209E+02 0.  0.
          2    1    6    6  501    0  0.71713082974E+01 -0.12759817546E+02 -0.32196477538E+02  0.35367411163E+02  0.00000000000E+00 0. -1.
         -1    1    6    6    0  501  0.91499302988E+02 -0.93822444792E+01  0.26508765353E+02  0.95722847844E+02  0.00000000000E+00 0.  1.
          5    1    5    5  502    0  0.24387166718E+02  0.83819973364E+02  0.24936847083E+02  0.90909065432E+02  0.47000000000E+01 0. -1.
         11    1    4    4    0    0  0.88397349456E+01  0.19928762173E+02 -0.40882527142E+02  0.46332251199E+02  0.00000000000E+00 0. -1.
        -12    1    4    4    0    0 -0.11914504326E+03 -0.77720813005E+01 -0.23508741130E+03  0.26367031977E+03  0.00000000000E+00 0.  1.
         -5    1    3    3    0  504 -0.12752469693E+02 -0.73834592210E+02 -0.92392741866E+02  0.11904907072E+03  0.47000000000E+01 0.  1.
<mgrwt>
<rscale>  2 0.22086856E+03</rscale>
<asrwt>0</asrwt>
<pdfrwt beam="1">  1       21 0.23225956E-01 0.22116322E+03</pdfrwt>
<pdfrwt beam="2">  1       21 0.76935731E-01 0.22116322E+03</pdfrwt>
<totfact> 0.25752064E+04</totfact>
</mgrwt>
</event>
<event>
12    1  0.2791583E-001  0.2239395E+03  0.7546771E-02  0.1131235E+00
         21   -1    0    0  502  503  0.00000000000E+00  0.00000000000E+00  0.11202885329E+04  0.11202885329E+04  0.00000000000E+00 0.  1.
         21   -1    0    0  503  504 -0.00000000000E+00 -0.00000000000E+00 -0.53302947182E+02  0.53302947182E+02  0.00000000000E+00 0. -1.
         -6    2    1    2    0  504  0.47874571564E+02 -0.13368896131E+03  0.29343065947E+03  0.36827407348E+03  0.17134622347E+03 0.  0.
        -24    2    3    3    0    0  0.65654795433E+02 -0.15692021844E+03  0.22415699374E+03  0.29292980739E+03  0.81406431530E+02 0.  0.
          6    2    1    2  502    0 -0.47874571564E+02  0.13368896131E+03  0.77355492621E+03  0.80531740657E+03  0.17315943081E+03 0.  0.
         24    2    5    5    0    0 -0.95973765087E+02  0.10534122102E+03  0.63740666702E+03  0.65809116815E+03  0.80554267481E+02 0.  0.
          4    1    6    6  501    0 -0.82702765090E+02  0.11563110547E+03  0.50516578882E+03  0.52478831361E+03  0.00000000000E+00 0. -1.
         -3    1    6    6    0  501 -0.13270999996E+02 -0.10289884449E+02  0.13224087819E+03  0.13330285454E+03  0.00000000000E+00 0.  1.
          5    1    5    5  502    0  0.48099193523E+02  0.28347740291E+02  0.13614825919E+03  0.14722623841E+03  0.47000000000E+01 0. -1.
         11    1    4    4    0    0  0.11159758910E+02 -0.12578703763E+02 -0.42050156062E+01  0.17333382922E+02  0.00000000000E+00 0. -1.
        -12    1    4    4    0    0  0.54495036524E+02 -0.14434151468E+03  0.22836200935E+03  0.27559642447E+03  0.00000000000E+00 0.  1.
         -5    1    3    3    0  504 -0.17780223870E+02  0.23231257130E+02  0.69273665728E+02  0.75344266087E+02  0.47000000000E+01 0.  1.
<mgrwt>
<rscale>  2 0.22358891E+03</rscale>
<asrwt>0</asrwt>
<pdfrwt beam="1">  1       21 0.17235206E+00 0.22393950E+03</pdfrwt>
<pdfrwt beam="2">  1       21 0.82004543E-02 0.22393950E+03</pdfrwt>
<totfact> 0.23127569E+04</totfact>
</mgrwt>
</event>
<event>
12    1  0.2791583E-001  0.8850330E+03  0.7546771E-02  0.9444526E-01
         21   -1    0    0  502  503  0.00000000000E+00  0.00000000000E+00  0.10138206476E+04  0.10138206476E+04  0.00000000000E+00 0. -1.
         21   -1    0    0  503  504 -0.00000000000E+00 -0.00000000000E+00 -0.80021619545E+03  0.80021619545E+03  0.00000000000E+00 0. -1.
         -6    2    1    2    0  504  0.74801381476E+03  0.44024382087E+03 -0.62010371736E+02  0.88708112600E+03  0.17241910864E+03 0.  0.
        -24    2    3    3    0    0  0.28369850025E+03  0.13029755853E+03  0.18973206563E+02  0.32295717971E+03  0.80492636659E+02 0.  0.
          6    2    1    2  502    0 -0.74801381476E+03 -0.44024382087E+03  0.27561482392E+03  0.92695571708E+03  0.17304358232E+03 0.  0.
         24    2    5    5    0    0 -0.27634978323E+03 -0.21827152821E+03  0.77206829067E+02  0.36916858944E+03  0.79453698794E+02 0.  0.
          4    1    6    6  501    0 -0.19676851720E+03 -0.19671374293E+03  0.52977441971E+02  0.28323268769E+03  0.00000000000E+00 0. -1.
         -3    1    6    6    0  501 -0.79581266033E+02 -0.21557785276E+02  0.24229387097E+02  0.85935901743E+02  0.00000000000E+00 0.  1.
          5    1    5    5  502    0 -0.47166403153E+03 -0.22197229266E+03  0.19840799485E+03  0.55778712764E+03  0.47000000000E+01 0. -1.
         13    1    4    4    0    0  0.14098999705E+03  0.10770726776E+03  0.15957094264E+01  0.17743049649E+03  0.00000000000E+00 0. -1.
        -14    1    4    4    0    0  0.14270850320E+03  0.22590290775E+02  0.17377497137E+02  0.14552668322E+03  0.00000000000E+00 0.  1.
         -5    1    3    3    0  504  0.46431531450E+03  0.30994626233E+03 -0.80983578299E+02  0.56412394628E+03  0.47000000000E+01 0.  1.
<mgrwt>
<rscale>  2 0.88500250E+03</rscale>
<asrwt>0</asrwt>
<pdfrwt beam="1">  1       21 0.15597241E+00 0.88503298E+03</pdfrwt>
<pdfrwt beam="2">  1       21 0.12311018E+00 0.88503298E+03</pdfrwt>
<totfact> 0.91030001E+01</totfact>
</mgrwt>
</event>
<event>
12    1  0.2791583E-001  0.2700398E+03  0.7546771E-02  0.1101735E+00
         21   -1    0    0  502  503  0.00000000000E+00  0.00000000000E+00  0.17619320995E+03  0.17619320995E+03  0.00000000000E+00 0. -1.
         21   -1    0    0  503  504 -0.00000000000E+00 -0.00000000000E+00 -0.81501668475E+03  0.81501668475E+03  0.00000000000E+00 0.  1.
         -6    2    1    2    0  504 -0.20022250278E+03 -0.30879344072E+02 -0.67028921112E+03  0.72264036549E+03  0.17854659555E+03 0.  0.
        -24    2    3    3    0    0 -0.20430703560E+03 -0.43067456093E+02 -0.67252711438E+03  0.70877199522E+03  0.80429168001E+02 0.  0.
          6    2    1    2  502    0  0.20022250278E+03  0.30879344072E+02  0.31465736328E+02  0.26856952921E+03  0.17348462453E+03 0.  0.
         24    2    5    5    0    0  0.14869816341E+03  0.33623628055E+02 -0.40699228043E+02  0.17973169535E+03  0.86054418744E+02 0.  0.
          2    1    6    6  501    0  0.58090081310E+02  0.55104419796E+02 -0.57678161786E+01  0.80275913767E+02  0.00000000000E+00 0. -1.
         -1    1    6    6    0  501  0.90608082098E+02 -0.21480791741E+02 -0.34931411865E+02  0.99455781582E+02  0.00000000000E+00 0.  1.
          5    1    5    5  502    0  0.51524339372E+02 -0.27442839828E+01  0.72164964371E+02  0.88837833860E+02  0.47000000000E+01 0. -1.
         13    1    4    4    0    0 -0.15831604881E+02  0.18170041237E+02 -0.10193846875E+03  0.10474846788E+03  0.00000000000E+00 0. -1.
        -14    1    4    4    0    0 -0.18847543072E+03 -0.61237497330E+02 -0.57058864563E+03  0.60402352735E+03  0.00000000000E+00 0.  1.
         -5    1    3    3    0  504  0.40845328194E+01  0.12188112021E+02  0.22379032573E+01  0.13868370271E+02  0.47000000000E+01 0.  1.
<mgrwt>
<rscale>  2 0.26920594E+03</rscale>
<asrwt>0</asrwt>
<pdfrwt beam="1">  1       21 0.27106648E-01 0.27003976E+03</pdfrwt>
<pdfrwt beam="2">  1       21 0.12538718E+00 0.27003976E+03</pdfrwt>
<totfact> 0.58223826E+03</totfact>
</mgrwt>
</event>
<event>
12    1  0.2791583E-001  0.3122427E+03  0.7546771E-02  0.1079425E+00
         21   -1    0    0  502  503  0.00000000000E+00  0.00000000000E+00  0.10922126187E+04  0.10922126187E+04  0.00000000000E+00 0. -1.
         21   -1    0    0  503  504 -0.00000000000E+00 -0.00000000000E+00 -0.89452324246E+02  0.89452324246E+02  0.00000000000E+00 0.  1.
         -6    2    1    2    0  504  0.24906334154E+03  0.73468451458E+02  0.54858072572E+03  0.63121814470E+03  0.17339369110E+03 0.  0.
        -24    2    3    3    0    0  0.38625459589E+02  0.34961571132E+02  0.19078734418E+03  0.21431878531E+03  0.82574169395E+02 0.  0.
          6    2    1    2  502    0 -0.24906334154E+03 -0.73468451458E+02  0.45417956877E+03  0.55044679828E+03  0.17112111381E+03 0.  0.
         24    2    5    5    0    0 -0.87767757579E+02 -0.72562008505E+02  0.14021751457E+03  0.19744347178E+03  0.79715423899E+02 0.  0.
          2    1    6    6  501    0 -0.45317398334E+02 -0.79920145089E+02  0.11614958917E+03  0.14809329238E+03  0.00000000000E+00 0. -1.
         -1    1    6    6    0  501 -0.42450359244E+02  0.73581365832E+01  0.24067925399E+02  0.49350179402E+02  0.00000000000E+00 0.  1.
          5    1    5    5  502    0 -0.16129558396E+03 -0.90644295256E+00  0.31396205420E+03  0.35300332650E+03  0.47000000000E+01 0. -1.
         13    1    4    4    0    0  0.11980176942E+01  0.54587824465E+02  0.12070956120E+03  0.13248420280E+03  0.00000000000E+00 0. -1.
        -14    1    4    4    0    0  0.37427441895E+02 -0.19626253333E+02  0.70077782983E+02  0.81834582509E+02  0.00000000000E+00 0.  1.
         -5    1    3    3    0  504  0.21043788195E+03  0.38506880326E+02  0.35779338153E+03  0.41689935939E+03  0.47000000000E+01 0.  1.
<mgrwt>
<rscale>  2 0.31192821E+03</rscale>
<asrwt>0</asrwt>
<pdfrwt beam="1">  1       21 0.16803270E+00 0.31224275E+03</pdfrwt>
<pdfrwt beam="2">  1       21 0.13761897E-01 0.31224275E+03</pdfrwt>
<totfact> 0.93718047E+03</totfact>
</mgrwt>
</event>
<event>
12    1  0.2791583E-001  0.1979155E+03  0.7546771E-02  0.1151574E+00
         21   -1    0    0  502  503  0.00000000000E+00  0.00000000000E+00  0.79613133686E+02  0.79613133686E+02  0.00000000000E+00 0. -1.
         21   -1    0    0  503  504 -0.00000000000E+00 -0.00000000000E+00 -0.59031412666E+03  0.59031412666E+03  0.00000000000E+00 0. -1.
         -6    2    1    2    0  504  0.24510215675E+02  0.94010562002E+02 -0.11797828282E+03  0.23015271269E+03  0.17208329233E+03 0.  0.
        -24    2    3    3    0    0  0.64346272266E+02  0.13762504434E+02 -0.86450077170E+02  0.13505918031E+03  0.80234138997E+02 0.  0.
          6    2    1    2  502    0 -0.24510215675E+02 -0.94010562002E+02 -0.39272271015E+03  0.43977454766E+03  0.17242908473E+03 0.  0.
         24    2    5    5    0    0 -0.18749358262E+02 -0.12734520702E+03 -0.24544280335E+03  0.28858642980E+03  0.80446364485E+02 0.  0.
          2    1    6    6  501    0  0.12095684127E+02 -0.10683567246E+03 -0.21595879962E+03  0.24124338254E+03  0.00000000000E+00 0. -1.
         -1    1    6    6    0  501 -0.30845042389E+02 -0.20509534555E+02 -0.29484003738E+02  0.47343047262E+02  0.00000000000E+00 0.  1.
          5    1    5    5  502    0 -0.57608574130E+01  0.33334645017E+02 -0.14727990680E+03  0.15118811786E+03  0.47000000000E+01 0. -1.
         13    1    4    4    0    0 -0.51358438980E+01  0.17368365807E+02  0.62445809693E+01  0.19158074403E+02  0.00000000000E+00 0. -1.
        -14    1    4    4    0    0  0.69482116164E+02 -0.36058613738E+01 -0.92694658139E+02  0.11590110591E+03  0.00000000000E+00 0.  1.
         -5    1    3    3    0  504 -0.39836056591E+02  0.80248057569E+02 -0.31528205655E+02  0.95093532378E+02  0.47000000000E+01 0.  1.
<mgrwt>
<rscale>  2 0.19784011E+03</rscale>
<asrwt>0</asrwt>
<pdfrwt beam="1">  1       21 0.12248174E-01 0.19791545E+03</pdfrwt>
<pdfrwt beam="2">  1       21 0.90817562E-01 0.19791545E+03</pdfrwt>
<totfact> 0.58050553E+04</totfact>
</mgrwt>
</event>
<event>
12    1  0.2791583E-001  0.1945370E+03  0.7546771E-02  0.1156013E+00
         21   -1    0    0  502  503  0.00000000000E+00  0.00000000000E+00  0.16083718858E+03  0.16083718858E+03  0.00000000000E+00 0.  1.
         21   -1    0    0  503  504 -0.00000000000E+00 -0.00000000000E+00 -0.24989845618E+03  0.24989845618E+03  0.00000000000E+00 0.  1.
         -6    2    1    2    0  504  0.60042261491E+02 -0.29401803801E+02 -0.10620239730E+03  0.21544494413E+03  0.17512291549E+03 0.  0.
        -24    2    3    3    0    0 -0.24912576793E+02  0.13830413238E+02 -0.78755497524E+02  0.11613849195E+03  0.80459953451E+02 0.  0.
          6    2    1    2  502    0 -0.60042261491E+02  0.29401803801E+02  0.17141129694E+02  0.19529070063E+03  0.18268853328E+03 0.  0.
         24    2    5    5    0    0  0.21103625315E+02  0.59281964916E+01  0.50235765494E+02  0.10444462144E+03  0.88907481673E+02 0.  0.
          2    1    6    6  501    0  0.49965180002E+02 -0.40127646910E-01  0.46764377861E+01  0.50183561983E+02  0.00000000000E+00 0. -1.
         -1    1    6    6    0  501 -0.28861554688E+02  0.59683241385E+01  0.45559327707E+02  0.54261059455E+02  0.00000000000E+00 0.  1.
          5    1    5    5  502    0 -0.81145886806E+02  0.23473607309E+02 -0.33094635799E+02  0.90846079191E+02  0.47000000000E+01 0. -1.
         13    1    4    4    0    0 -0.17635749111E+02 -0.56321907002E+01  0.12636125057E+02  0.22414568370E+02  0.00000000000E+00 0. -1.
        -14    1    4    4    0    0 -0.72768276820E+01  0.19462603938E+02 -0.91391622581E+02  0.93723923579E+02  0.00000000000E+00 0.  1.
         -5    1    3    3    0  504  0.84954838284E+02 -0.43232217039E+02 -0.27446899774E+02  0.99306452183E+02  0.47000000000E+01 0.  1.
<mgrwt>
<rscale>  2 0.19274056E+03</rscale>
<asrwt>0</asrwt>
<pdfrwt beam="1">  1       21 0.24744183E-01 0.19453699E+03</pdfrwt>
<pdfrwt beam="2">  1       21 0.38445917E-01 0.19453699E+03</pdfrwt>
<totfact> 0.10070610E+05</totfact>
</mgrwt>
</event>
<event>
12    1  0.2791583E-001  0.2018934E+03  0.7546771E-02  0.1148618E+00
         21   -1    0    0  502  503  0.00000000000E+00  0.00000000000E+00  0.22882119770E+02  0.22882119770E+02  0.00000000000E+00 0.  1.
         21   -1    0    0  503  504 -0.00000000000E+00 -0.00000000000E+00 -0.17626090534E+04  0.17626090534E+04  0.00000000000E+00 0. -1.
         -6    2    1    2    0  504  0.95325034207E+02  0.33937760057E+02 -0.85497741200E+03  0.87849149161E+03  0.17470630237E+03 0.  0.
        -24    2    3    3    0    0  0.74372018451E+02  0.24064108461E+02 -0.84578836631E+03  0.85313313153E+03  0.79799129551E+02 0.  0.
          6    2    1    2  502    0 -0.95325034207E+02 -0.33937760057E+02 -0.88474952161E+03  0.90699968155E+03  0.17212807043E+03 0.  0.
         24    2    5    5    0    0  0.14106715617E+02  0.16360714738E+01 -0.31086603964E+03  0.32167486041E+03  0.81457627410E+02 0.  0.
          2    1    6    6  501    0  0.35161092305E+02  0.90600239363E+01 -0.28584534170E+03  0.28814223193E+03  0.00000000000E+00 0. -1.
         -1    1    6    6    0  501 -0.21054376687E+02 -0.74239524625E+01 -0.25020697938E+02  0.33532628486E+02  0.00000000000E+00 0.  1.
          5    1    5    5  502    0 -0.10943174982E+03 -0.35573831531E+02 -0.57388348197E+03  0.58532482113E+03  0.47000000000E+01 0. -1.
         13    1    4    4    0    0 -0.92215119514E+01 -0.14808895151E+02 -0.20592323116E+03  0.20666087388E+03  0.00000000000E+00 0. -1.
        -14    1    4    4    0    0  0.83593530403E+02  0.38873003612E+02 -0.63986513515E+03  0.64647225765E+03  0.00000000000E+00 0.  1.
         -5    1    3    3    0  504  0.20953015755E+02  0.98736515963E+01 -0.91890456875E+01  0.25358360076E+02  0.47000000000E+01 0.  1.
<mgrwt>
<rscale>  2 0.20133432E+03</rscale>
<asrwt>0</asrwt>
<pdfrwt beam="1">  1       21 0.35203255E-02 0.20189335E+03</pdfrwt>
<pdfrwt beam="2">  1       21 0.27117067E+00 0.20189335E+03</pdfrwt>
<totfact> 0.24079435E+04</totfact>
</mgrwt>
</event>
<event>
12    1  0.2791583E-001  0.1914516E+03  0.7546771E-02  0.1157270E+00
         21   -1    0    0  502  503  0.00000000000E+00  0.00000000000E+00  0.25020108695E+03  0.25020108695E+03  0.00000000000E+00 0.  1.
         21   -1    0    0  503  504 -0.00000000000E+00 -0.00000000000E+00 -0.34998588108E+03  0.34998588108E+03  0.00000000000E+00 0.  1.
         -6    2    1    2    0  504  0.77667634477E+02 -0.27348398324E+02 -0.27895832004E+03  0.33833631175E+03  0.17283957648E+03 0.  0.
        -24    2    3    3    0    0 -0.13690375899E+02 -0.28434508856E+02 -0.19992874556E+03  0.21744284899E+03  0.79460314571E+02 0.  0.
          6    2    1    2  502    0 -0.77667634477E+02  0.27348398324E+02  0.17917352591E+03  0.26185065628E+03  0.17228585975E+03 0.  0.
         24    2    5    5    0    0  0.17456152216E+02  0.36335678398E+02  0.10555700023E+03  0.14114113365E+03  0.84578605668E+02 0.  0.
          2    1    6    6  501    0  0.38529560305E+02  0.37154282110E+01  0.13109506903E+02  0.40867965393E+02  0.00000000000E+00 0. -1.
         -1    1    6    6    0  501 -0.21073408089E+02  0.32620250187E+02  0.92447493327E+02  0.10027316826E+03  0.00000000000E+00 0.  1.
          5    1    5    5  502    0 -0.95123786694E+02 -0.89872800745E+01  0.73616525683E+02  0.12070952262E+03  0.47000000000E+01 0. -1.
         13    1    4    4    0    0  0.97233692136E+01  0.11254428861E+02 -0.14493089027E+03  0.14569203490E+03  0.00000000000E+00 0. -1.
        -14    1    4    4    0    0 -0.23413745113E+02 -0.39688937717E+02 -0.54997855289E+02  0.71750814098E+02  0.00000000000E+00 0.  1.
         -5    1    3    3    0  504  0.91358010376E+02  0.10861105323E+01 -0.79029574477E+02  0.12089346276E+03  0.47000000000E+01 0.  1.
<mgrwt>
<rscale>  2 0.19132654E+03</rscale>
<asrwt>0</asrwt>
<pdfrwt beam="1">  1       21 0.38492475E-01 0.19145160E+03</pdfrwt>
<pdfrwt beam="2">  1       21 0.53843982E-01 0.19145160E+03</pdfrwt>
<totfact> 0.21247607E+04</totfact>
</mgrwt>
</event>
<event>
12    1  0.2791583E-001  0.3140058E+03  0.7546771E-02  0.1078444E+00
         21   -1    0    0  502  503  0.00000000000E+00  0.00000000000E+00  0.44512101933E+03  0.44512101933E+03  0.00000000000E+00 0.  1.
         21   -1    0    0  503  504 -0.00000000000E+00 -0.00000000000E+00 -0.35898677326E+03  0.35898677326E+03  0.00000000000E+00 0. -1.
         -6    2    1    2    0  504 -0.20669430663E+03 -0.16063087621E+03 -0.20574884987E+03  0.37540937839E+03  0.17342086776E+03 0.  0.
        -24    2    3    3    0    0 -0.10024465552E+03 -0.13017520425E+03 -0.60359398231E+02  0.19260002735E+03  0.80355079615E+02 0.  0.
          6    2    1    2  502    0  0.20669430663E+03  0.16063087621E+03  0.29188309594E+03  0.42869841421E+03  0.17338331484E+03 0.  0.
         24    2    5    5    0    0  0.21310798893E+03  0.17342663511E+03  0.23582930820E+03  0.37065546556E+03  0.79235085872E+02 0.  0.
          2    1    6    6  501    0  0.85336548443E+02  0.29135522073E+02  0.50876430643E+02  0.10353558008E+03  0.00000000000E+00 0. -1.
         -1    1    6    6    0  501  0.12777144049E+03  0.14429111304E+03  0.18495287756E+03  0.26711988549E+03  0.00000000000E+00 0.  1.
          5    1    5    5  502    0 -0.64136823086E+01 -0.12795758906E+02  0.56053787745E+02  0.58042948644E+02  0.47000000000E+01 0. -1.
         11    1    4    4    0    0 -0.81459806520E+02 -0.40481036486E+02 -0.35522628033E+02  0.97653835027E+02  0.00000000000E+00 0. -1.
        -12    1    4    4    0    0 -0.18784848996E+02 -0.89694167769E+02 -0.24836770198E+02  0.94946192327E+02  0.00000000000E+00 0.  1.
         -5    1    3    3    0  504 -0.10644965111E+03 -0.30455671952E+02 -0.14538945164E+03  0.18280935103E+03  0.47000000000E+01 0.  1.
<mgrwt>
<rscale>  2 0.31400057E+03</rscale>
<asrwt>0</asrwt>
<pdfrwt beam="1">  1       21 0.68480157E-01 0.31400575E+03</pdfrwt>
<pdfrwt beam="2">  1       21 0.55228734E-01 0.31400575E+03</pdfrwt>
<totfact> 0.55867273E+03</totfact>
</mgrwt>
</event>
<event>
12    1  0.2791583E-001  0.1782957E+03  0.7546771E-02  0.1169626E+00
         21   -1    0    0  502  503  0.00000000000E+00  0.00000000000E+00  0.69629650317E+02  0.69629650317E+02  0.00000000000E+00 0.  1.
         21   -1    0    0  503  504 -0.00000000000E+00 -0.00000000000E+00 -0.11862547297E+04  0.11862547297E+04  0.00000000000E+00 0. -1.
         -6    2    1    2    0  504  0.39180354103E+02 -0.76018538158E+01 -0.10509844731E+04  0.10658895168E+04  0.17308729252E+03 0.  0.
        -24    2    3    3    0    0  0.36936858036E+02 -0.33679747005E+02 -0.10224125448E+04  0.10268570319E+04  0.81297572448E+02 0.  0.
          6    2    1    2  502    0 -0.39180354103E+02  0.76018538158E+01 -0.65640606300E+02  0.18999486331E+03  0.17377131685E+03 0.  0.
         24    2    5    5    0    0 -0.44169516494E+02  0.37930295997E+02  0.21484754973E+02  0.97487432673E+02  0.75183450913E+02 0.  0.
          2    1    6    6  501    0 -0.61137369734E+02  0.14701705322E+02  0.26591630654E+02  0.68271757984E+02  0.00000000000E+00 0. -1.
         -1    1    6    6    0  501  0.16967853240E+02  0.23228590676E+02 -0.51068756815E+01  0.29215674690E+02  0.00000000000E+00 0.  1.
          5    1    5    5  502    0  0.49891623915E+01 -0.30328442181E+02 -0.87125361273E+02  0.92507430639E+02  0.47000000000E+01 0. -1.
         11    1    4    4    0    0  0.28702924559E+02  0.21633240962E+02 -0.54423165324E+03  0.54541722322E+03  0.00000000000E+00 0. -1.
        -12    1    4    4    0    0  0.82339334768E+01 -0.55312987967E+02 -0.47818089157E+03  0.48143980866E+03  0.00000000000E+00 0.  1.
         -5    1    3    3    0  504  0.22434960666E+01  0.26077893189E+02 -0.28571928320E+02  0.39032484877E+02  0.47000000000E+01 0.  1.
<mgrwt>
<rscale>  2 0.17812882E+03</rscale>
<asrwt>0</asrwt>
<pdfrwt beam="1">  1       21 0.10712254E-01 0.17829571E+03</pdfrwt>
<pdfrwt beam="2">  1       21 0.18250072E+00 0.17829571E+03</pdfrwt>
<totfact> 0.12715908E+04</totfact>
</mgrwt>
</event>
<event>
12    1  0.2791583E-001  0.1892068E+03  0.7546771E-02  0.1161023E+00
         21   -1    0    0  502  503  0.00000000000E+00  0.00000000000E+00  0.30069923264E+03  0.30069923264E+03  0.00000000000E+00 0.  1.
         21   -1    0    0  503  504 -0.00000000000E+00 -0.00000000000E+00 -0.14315541053E+03  0.14315541053E+03  0.00000000000E+00 0.  1.
         -6    2    1    2    0  504  0.50053580554E+02 -0.59189737397E+02 -0.22530878085E+02  0.18265337343E+03  0.16384696646E+03 0.  0.
        -24    2    3    3    0    0  0.53382058971E+02 -0.88285261384E+02  0.17628608082E+02  0.13272840359E+03  0.81621870225E+02 0.  0.
          6    2    1    2  502    0 -0.50053580554E+02  0.59189737397E+02  0.18007470019E+03  0.26120126974E+03  0.17259901427E+03 0.  0.
         24    2    5    5    0    0  0.35596919192E+02  0.76601239360E+01  0.71102694390E+02  0.11325432919E+03  0.80281578061E+02 0.  0.
          4    1    6    6  501    0  0.61534168459E+02  0.18336977639E+01  0.48960460303E+02  0.78657123063E+02  0.00000000000E+00 0. -1.
         -3    1    6    6    0  501 -0.25937249266E+02  0.58264261721E+01  0.22142234086E+02  0.34597206127E+02  0.00000000000E+00 0.  1.
          5    1    5    5  502    0 -0.85650499746E+02  0.51529613461E+02  0.10897200580E+03  0.14794694055E+03  0.47000000000E+01 0. -1.
         13    1    4    4    0    0  0.70589658490E+01  0.42184792581E+01  0.27595954618E+02  0.28795160659E+02  0.00000000000E+00 0. -1.
        -14    1    4    4    0    0  0.46323093122E+02 -0.92503740642E+02 -0.99673465358E+01  0.10393324293E+03  0.00000000000E+00 0.  1.
         -5    1    3    3    0  504 -0.33284784173E+01  0.29095523986E+02 -0.40159486168E+02  0.49924969843E+02  0.47000000000E+01 0.  1.
<mgrwt>
<rscale>  2 0.18718760E+03</rscale>
<asrwt>0</asrwt>
<pdfrwt beam="1">  1       21 0.46261420E-01 0.18920678E+03</pdfrwt>
<pdfrwt beam="2">  1       21 0.22023909E-01 0.18920678E+03</pdfrwt>
<totfact> 0.86355219E+04</totfact>
</mgrwt>
</event>
<event>
12    1  0.2791583E-001  0.2204379E+03  0.7546771E-02  0.1137227E+00
         21   -1    0    0  502  503  0.00000000000E+00  0.00000000000E+00  0.91789675790E+03  0.91789675790E+03  0.00000000000E+00 0. -1.
         21   -1    0    0  503  504 -0.00000000000E+00 -0.00000000000E+00 -0.56218320268E+02  0.56218320268E+02  0.00000000000E+00 0.  1.
         -6    2    1    2    0  504 -0.85912702127E+02 -0.73003496946E+02  0.23411764791E+03  0.30896442465E+03  0.16714496608E+03 0.  0.
        -24    2    3    3    0    0 -0.77273910393E+02 -0.17915530967E+02  0.22745787353E+03  0.25261058438E+03  0.76044721279E+02 0.  0.
          6    2    1    2  502    0  0.85912702127E+02  0.73003496946E+02  0.62756078972E+03  0.66515065352E+03  0.18942635541E+03 0.  0.
         24    2    5    5    0    0  0.13171586719E+02 -0.21173533240E+02  0.14468960113E+03  0.16781047048E+03  0.81261701452E+02 0.  0.
          2    1    6    6  501    0 -0.28102404322E+02 -0.29619032512E+02  0.89548592886E+02  0.98417390249E+02  0.00000000000E+00 0. -1.
         -1    1    6    6    0  501  0.41273991041E+02  0.84454992728E+01  0.55141008244E+02  0.69393080235E+02  0.00000000000E+00 0.  1.
          5    1    5    5  502    0  0.72741115407E+02  0.94177030185E+02  0.48287118860E+03  0.49734018303E+03  0.47000000000E+01 0. -1.
         13    1    4    4    0    0 -0.81245370661E+02  0.89414680699E+01  0.15494415669E+03  0.17518119704E+03  0.00000000000E+00 0. -1.
        -14    1    4    4    0    0  0.39714602679E+01 -0.26856999037E+02  0.72513716843E+02  0.77429387343E+02  0.00000000000E+00 0.  1.
         -5    1    3    3    0  504 -0.86387917337E+01 -0.55087965979E+02  0.66597743802E+01  0.56353840269E+02  0.47000000000E+01 0.  1.
<mgrwt>
<rscale>  2 0.21557304E+03</rscale>
<asrwt>0</asrwt>
<pdfrwt beam="1">  1       21 0.14121487E+00 0.22043785E+03</pdfrwt>
<pdfrwt beam="2">  1       21 0.86489730E-02 0.22043785E+03</pdfrwt>
<totfact> 0.36066274E+04</totfact>
</mgrwt>
</event>
<event>
12    1  0.2791583E-001  0.2030936E+03  0.7546771E-02  0.1147295E+00
         21   -1    0    0  502  503  0.00000000000E+00  0.00000000000E+00  0.30889182381E+03  0.30889182381E+03  0.00000000000E+00 0.  1.
         21   -1    0    0  503  504 -0.00000000000E+00 -0.00000000000E+00 -0.25376785863E+03  0.25376785863E+03  0.00000000000E+00 0.  1.
         -6    2    1    2    0  504  0.61510509643E+02  0.85679375150E+02 -0.16642025305E+03  0.26256944490E+03  0.17355838974E+03 0.  0.
        -24    2    3    3    0    0 -0.41619140014E+01  0.64220835877E+02 -0.16382751085E+03  0.19327190925E+03  0.79830697761E+02 0.  0.
          6    2    1    2  502    0 -0.61510509643E+02 -0.85679375150E+02  0.22154421823E+03  0.30009023754E+03  0.17276519299E+03 0.  0.
         24    2    5    5    0    0 -0.73218519486E+02 -0.12226264925E+03  0.18834238258E+03  0.24910136297E+03  0.79180357162E+02 0.  0.
          2    1    6    6  501    0  0.26857419090E+01 -0.52198919428E+02  0.30661272487E+02  0.60597475439E+02  0.00000000000E+00 0. -1.
         -1    1    6    6    0  501 -0.75904261395E+02 -0.70063729827E+02  0.15768111009E+03  0.18850388753E+03  0.00000000000E+00 0.  1.
          5    1    5    5  502    0  0.11708009842E+02  0.36583274105E+02  0.33201835651E+02  0.50988874564E+02  0.47000000000E+01 0. -1.
         13    1    4    4    0    0 -0.27697970521E+02 -0.40768630062E+01 -0.65745004549E+02  0.71457707814E+02  0.00000000000E+00 0. -1.
        -14    1    4    4    0    0  0.23536056520E+02  0.68297698883E+02 -0.98082506305E+02  0.12181420144E+03  0.00000000000E+00 0.  1.
         -5    1    3    3    0  504  0.65672423645E+02  0.21458539273E+02 -0.25927421960E+01  0.69297535650E+02  0.47000000000E+01 0.  1.
<mgrwt>
<rscale>  2 0.20292404E+03</rscale>
<asrwt>0</asrwt>
<pdfrwt beam="1">  1       21 0.47521819E-01 0.20309361E+03</pdfrwt>
<pdfrwt beam="2">  1       21 0.39041209E-01 0.20309361E+03</pdfrwt>
<totfact> 0.26630017E+04</totfact>
</mgrwt>
</event>
<event>
12    1  0.2791583E-001  0.2259658E+03  0.7546771E-02  0.1129635E+00
         21   -1    0    0  502  503  0.00000000000E+00  0.00000000000E+00  0.98678016265E+02  0.98678016265E+02  0.00000000000E+00 0. -1.
         21   -1    0    0  503  504 -0.00000000000E+00 -0.00000000000E+00 -0.10110403110E+04  0.10110403110E+04  0.00000000000E+00 0. -1.
         -6    2    1    2    0  504 -0.13796885251E+03  0.46565169754E+02 -0.84413170662E+03  0.87367608469E+03  0.17189486190E+03 0.  0.
        -24    2    3    3    0    0 -0.14892890024E+03  0.42467742624E+02 -0.50596025822E+03  0.53526962780E+03  0.80836038105E+02 0.  0.
          6    2    1    2  502    0  0.13796885251E+03 -0.46565169754E+02 -0.68230588102E+02  0.23604224256E+03  0.17279122611E+03 0.  0.
         24    2    5    5    0    0  0.14130415033E+03  0.29810132779E+01 -0.85022372721E+02  0.18341142938E+03  0.80219693498E+02 0.  0.
          2    1    6    6  501    0  0.11772603335E+03 -0.21028286699E+02 -0.37790692168E+02  0.12541827691E+03  0.00000000000E+00 0. -1.
         -1    1    6    6    0  501  0.23578116984E+02  0.24009299976E+02 -0.47231680552E+02  0.57993152472E+02  0.00000000000E+00 0.  1.
          5    1    5    5  502    0 -0.33352978210E+01 -0.49546183032E+02  0.16791784618E+02  0.52630813173E+02  0.47000000000E+01 0. -1.
         13    1    4    4    0    0 -0.52946838168E+02  0.87853189037E+01 -0.73515065423E+02  0.91022054164E+02  0.00000000000E+00 0. -1.
        -14    1    4    4    0    0 -0.95982062070E+02  0.33682423721E+02 -0.43244519279E+03  0.44424757363E+03  0.00000000000E+00 0.  1.
         -5    1    3    3    0  504  0.10960047728E+02  0.40974271300E+01 -0.33817144840E+03  0.33840645690E+03  0.47000000000E+01 0.  1.
<mgrwt>
<rscale>  2 0.22579440E+03</rscale>
<asrwt>0</asrwt>
<pdfrwt beam="1">  1       21 0.15181234E-01 0.22596577E+03</pdfrwt>
<pdfrwt beam="2">  1       21 0.15554466E+00 0.22596577E+03</pdfrwt>
<totfact> 0.10171275E+04</totfact>
</mgrwt>
</event>
<event>
12    1  0.2791583E-001  0.1972137E+03  0.7546771E-02  0.1152320E+00
         21   -1    0    0  502  503  0.00000000000E+00  0.00000000000E+00  0.24991255784E+03  0.24991255784E+03  0.00000000000E+00 0. -1.
         21   -1    0    0  503  504 -0.00000000000E+00 -0.00000000000E+00 -0.39476436038E+03  0.39476436038E+03  0.00000000000E+00 0. -1.
         -6    2    1    2    0  504 -0.93064892412E+02  0.87148276748E+01 -0.32377614007E+03  0.37910981205E+03  0.17365551616E+03 0.  0.
        -24    2    3    3    0    0 -0.12829268634E+03  0.30843247614E+02 -0.26252738776E+03  0.30491975818E+03  0.81517546035E+02 0.  0.
          6    2    1    2  502    0  0.93064892412E+02 -0.87148276748E+01  0.17892433753E+03  0.26556710616E+03  0.17255418539E+03 0.  0.
         24    2    5    5    0    0  0.10134602296E+03  0.25733439627E+02  0.93160804422E+02  0.17265459972E+03  0.10098241945E+03 0.  0.
          4    1    6    6  501    0  0.11683528675E+03  0.17520160732E+02  0.99039530603E+02  0.15416312427E+03  0.00000000000E+00 0. -1.
         -3    1    6    6    0  501 -0.15489263784E+02  0.82132788947E+01 -0.58787261816E+01  0.18491475449E+02  0.00000000000E+00 0.  1.
          5    1    5    5  502    0 -0.82811305514E+01 -0.34448267302E+02  0.85763533109E+02  0.92912506449E+02  0.47000000000E+01 0. -1.
         13    1    4    4    0    0 -0.18424000386E+02  0.36755604905E+02 -0.10507907792E+03  0.11283630133E+03  0.00000000000E+00 0. -1.
        -14    1    4    4    0    0 -0.10986868595E+03 -0.59123572910E+01 -0.15744830984E+03  0.19208345685E+03  0.00000000000E+00 0.  1.
         -5    1    3    3    0  504  0.35227793927E+02 -0.22128419940E+02 -0.61248752312E+02  0.74190053873E+02  0.47000000000E+01 0.  1.
<mgrwt>
<rscale>  2 0.19697103E+03</rscale>
<asrwt>0</asrwt>
<pdfrwt beam="1">  1       21 0.38448086E-01 0.19721374E+03</pdfrwt>
<pdfrwt beam="2">  1       21 0.60732979E-01 0.19721374E+03</pdfrwt>
<totfact> 0.16420830E+04</totfact>
</mgrwt>
</event>
<event>
12    1  0.2791583E-001  0.2208460E+03  0.7546771E-02  0.1133327E+00
         21   -1    0    0  502  503  0.00000000000E+00  0.00000000000E+00  0.88033532164E+03  0.88033532164E+03  0.00000000000E+00 0.  1.
         21   -1    0    0  503  504 -0.00000000000E+00 -0.00000000000E+00 -0.57524046461E+02  0.57524046461E+02  0.00000000000E+00 0.  1.
         -6    2    1    2    0  504  0.21633254260E+02 -0.13517527527E+03  0.31893268686E+03  0.38770795734E+03  0.17279771035E+03 0.  0.
        -24    2    3    3    0    0  0.85743268993E+01 -0.25002767684E+02  0.51512523398E+02  0.98149412591E+02  0.79253451985E+02 0.  0.
          6    2    1    2  502    0 -0.21633254260E+02  0.13517527527E+03  0.50387858832E+03  0.55015141076E+03  0.17329913520E+03 0.  0.
         24    2    5    5    0    0  0.30190599720E+02  0.53890730357E+02  0.10989785571E+03  0.14452128768E+03  0.70662442449E+02 0.  0.
          2    1    6    6  501    0  0.27070677260E+02 -0.28280331560E+01  0.88842717795E+01  0.28631270037E+02  0.00000000000E+00 0. -1.
         -1    1    6    6    0  501  0.31199224596E+01  0.56718763513E+02  0.10101358393E+03  0.11589001764E+03  0.00000000000E+00 0.  1.
          5    1    5    5  502    0 -0.51823853979E+02  0.81284544916E+02  0.39398073261E+03  0.40563012309E+03  0.47000000000E+01 0. -1.
         13    1    4    4    0    0  0.27758975703E+02 -0.25550280461E+01  0.61054325389E+02  0.67117207549E+02  0.00000000000E+00 0. -1.
        -14    1    4    4    0    0 -0.19184648803E+02 -0.22447739638E+02 -0.95418019915E+01  0.31032205042E+02  0.00000000000E+00 0.  1.
         -5    1    3    3    0  504  0.13058927360E+02 -0.11017250759E+03  0.26742016346E+03  0.28955854475E+03  0.47000000000E+01 0.  1.
<mgrwt>
<rscale>  2 0.22074759E+03</rscale>
<asrwt>0</asrwt>
<pdfrwt beam="1">  1       21 0.13543619E+00 0.22084597E+03</pdfrwt>
<pdfrwt beam="2">  1       21 0.88498540E-02 0.22084597E+03</pdfrwt>
<totfact> 0.38584044E+04</totfact>
</mgrwt>
</event>
<event>
12    1  0.2791583E-001  0.2023831E+03  0.7546771E-02  0.1147854E+00
         21   -1    0    0  502  503  0.00000000000E+00  0.00000000000E+00  0.25445152673E+02  0.25445152673E+02  0.00000000000E+00 0. -1.
         21   -1    0    0  503  504 -0.00000000000E+00 -0.00000000000E+00 -0.16059254875E+04  0.16059254875E+04  0.00000000000E+00 0. -1.
         -6    2    1    2    0  504 -0.54385720828E+02 -0.89823427397E+02 -0.77750593579E+03  0.80341420593E+03  0.17301113073E+03 0.  0.
        -24    2    3    3    0    0 -0.46636832046E+02 -0.64059763008E+02 -0.75944610504E+03  0.77067189131E+03  0.10439411021E+03 0.  0.
          6    2    1    2  502    0  0.54385720828E+02  0.89823427397E+02 -0.80297439901E+03  0.82795643422E+03  0.17238885335E+03 0.  0.
         24    2    5    5    0    0  0.53388178826E+01  0.11847687963E+03 -0.56975800103E+03  0.58787603664E+03  0.83119075672E+02 0.  0.
          4    1    6    6  501    0  0.14523047191E+02  0.12472966560E+03 -0.43784785463E+03  0.45549879493E+03  0.00000000000E+00 0. -1.
         -3    1    6    6    0  501 -0.91842293083E+01 -0.62527859696E+01 -0.13191014640E+03  0.13237724171E+03  0.00000000000E+00 0.  1.
          5    1    5    5  502    0  0.49046902945E+02 -0.28653452229E+02 -0.23321639798E+03  0.24008039758E+03  0.47000000000E+01 0. -1.
         11    1    4    4    0    0  0.14608851339E+00 -0.79911003260E+01 -0.52623370805E+03  0.52629439909E+03  0.00000000000E+00 0. -1.
        -12    1    4    4    0    0 -0.46782920559E+02 -0.56068662682E+02 -0.23321239700E+03  0.24437749222E+03  0.00000000000E+00 0.  1.
         -5    1    3    3    0  504 -0.77488887819E+01 -0.25763664389E+02 -0.18059830752E+02  0.32742314623E+02  0.47000000000E+01 0.  1.
<mgrwt>
<rscale>  2 0.20225001E+03</rscale>
<asrwt>0</asrwt>
<pdfrwt beam="1">  1       21 0.39146395E-02 0.20238307E+03</pdfrwt>
<pdfrwt beam="2">  1       21 0.24706542E+00 0.20238307E+03</pdfrwt>
<totfact> 0.27888330E+04</totfact>
</mgrwt>
</event>
<event>
12    1  0.2791583E-001  0.1886360E+03  0.7546771E-02  0.1159949E+00
         21   -1    0    0  502  503  0.00000000000E+00  0.00000000000E+00  0.11437988473E+02  0.11437988473E+02  0.00000000000E+00 0.  1.
         21   -1    0    0  503  504 -0.00000000000E+00 -0.00000000000E+00 -0.30943958912E+04  0.30943958912E+04  0.00000000000E+00 0.  1.
         -6    2    1    2    0  504  0.60665833105E+02  0.31950706728E+02 -0.15716648517E+04  0.15828137813E+04  0.17455047736E+03 0.  0.
        -24    2    3    3    0    0 -0.71264826997E+01  0.70385604933E+02 -0.80118855608E+03  0.80839215735E+03  0.81177937500E+02 0.  0.
          6    2    1    2  502    0 -0.60665833105E+02 -0.31950706728E+02 -0.15112930510E+04  0.15230200983E+04  0.17573372780E+03 0.  0.
         24    2    5    5    0    0 -0.44483224212E+02 -0.88830086014E+02 -0.10297013217E+04  0.10377883761E+04  0.82766902441E+02 0.  0.
          4    1    6    6  501    0  0.23462490757E+02 -0.11668544861E+02 -0.23840891070E+03  0.23984464162E+03  0.00000000000E+00 0. -1.
         -3    1    6    6    0  501 -0.67945714969E+02 -0.77161541153E+02 -0.79129241102E+03  0.79794373445E+03  0.00000000000E+00 0.  1.
          5    1    5    5  502    0 -0.16182608893E+02  0.56879379286E+02 -0.48159172923E+03  0.48523172225E+03  0.47000000000E+01 0. -1.
         11    1    4    4    0    0 -0.35742640051E+02  0.56747701743E+01 -0.22828776471E+03  0.23113857932E+03  0.00000000000E+00 0. -1.
        -12    1    4    4    0    0  0.28616157351E+02  0.64710834759E+02 -0.57290079137E+03  0.57725357803E+03  0.00000000000E+00 0.  1.
         -5    1    3    3    0  504  0.67792315804E+02 -0.38434898205E+02 -0.77047629567E+03  0.77442162397E+03  0.47000000000E+01 0.  1.
<mgrwt>
<rscale>  2 0.18835992E+03</rscale>
<asrwt>0</asrwt>
<pdfrwt beam="1">  1       21 0.17596916E-02 0.18863598E+03</pdfrwt>
<pdfrwt beam="2">  1       21 0.47606061E+00 0.18863598E+03</pdfrwt>
<totfact> 0.42327346E+03</totfact>
</mgrwt>
</event>
<event>
12    1  0.2791583E-001  0.2231117E+03  0.7546771E-02  0.1131622E+00
         21   -1    0    0  502  503  0.00000000000E+00  0.00000000000E+00  0.68744425435E+03  0.68744425435E+03  0.00000000000E+00 0. -1.
         21   -1    0    0  503  504 -0.00000000000E+00 -0.00000000000E+00 -0.72407339971E+02  0.72407339971E+02  0.00000000000E+00 0.  1.
         -6    2    1    2    0  504 -0.13703523202E+03 -0.31869088223E+02  0.31862685733E+03  0.38885596881E+03  0.17289186408E+03 0.  0.
        -24    2    3    3    0    0 -0.63813249810E+02  0.49605906558E+02  0.16062560630E+03  0.19653821409E+03  0.79333519908E+02 0.  0.
          6    2    1    2  502    0  0.13703523202E+03  0.31869088223E+02  0.29641005704E+03  0.37099562551E+03  0.17316044187E+03 0.  0.
         24    2    5    5    0    0  0.54812775404E+02  0.77873962808E+02  0.13637553515E+03  0.18522663171E+03  0.81497386932E+02 0.  0.
          2    1    6    6  501    0  0.61215369745E+02  0.91603224295E+02  0.12091262523E+03  0.16357975160E+03  0.00000000000E+00 0. -1.
         -1    1    6    6    0  501 -0.64025943407E+01 -0.13729261487E+02  0.15462909922E+02  0.21646880111E+02  0.00000000000E+00 0.  1.
          5    1    5    5  502    0  0.82222456620E+02 -0.46004874585E+02  0.16003452189E+03  0.18576899379E+03  0.47000000000E+01 0. -1.
         13    1    4    4    0    0 -0.71615973995E+02  0.53896789915E+02  0.96139357562E+02  0.13144005389E+03  0.00000000000E+00 0. -1.
        -14    1    4    4    0    0  0.78027241851E+01 -0.42908833568E+01  0.64486248742E+02  0.65098160201E+02  0.00000000000E+00 0.  1.
         -5    1    3    3    0  504 -0.73221982215E+02 -0.81474994781E+02  0.15800125103E+03  0.19231775472E+03  0.47000000000E+01 0.  1.
<mgrwt>
<rscale>  2 0.22305959E+03</rscale>
<asrwt>0</asrwt>
<pdfrwt beam="1">  1       21 0.10576065E+00 0.22311170E+03</pdfrwt>
<pdfrwt beam="2">  1       21 0.11139591E-01 0.22311170E+03</pdfrwt>
<totfact> 0.47382525E+04</totfact>
</mgrwt>
</event>
<event>
12    1  0.2791583E-001  0.1804902E+03  0.7546771E-02  0.1167638E+00
         21   -1    0    0  502  503  0.00000000000E+00  0.00000000000E+00  0.19933830884E+03  0.19933830884E+03  0.00000000000E+00 0. -1.
         21   -1    0    0  503  504 -0.00000000000E+00 -0.00000000000E+00 -0.16314150595E+03  0.16314150595E+03  0.00000000000E+00 0. -1.
         -6    2    1    2    0  504  0.18672491432E+02 -0.46725943970E+02  0.31257533031E+02  0.18192206867E+03  0.17200764495E+03 0.  0.
        -24    2    3    3    0    0  0.20246002822E+02 -0.97459102649E+02  0.16298874062E+02  0.12879786698E+03  0.80094069212E+02 0.  0.
          6    2    1    2  502    0 -0.18672491432E+02  0.46725943970E+02  0.49392698575E+01  0.18055774612E+03  0.17333414990E+03 0.  0.
         24    2    5    5    0    0 -0.13937125631E+02  0.48276524578E+02  0.68198076459E+02  0.11692917862E+03  0.80601419862E+02 0.  0.
          4    1    6    6  501    0 -0.14408336069E+01  0.58148656559E+02  0.78693006676E+02  0.97856688891E+02  0.00000000000E+00 0. -1.
         -3    1    6    6    0  501 -0.12496292024E+02 -0.98721319801E+01 -0.10494930217E+02  0.19072489728E+02  0.00000000000E+00 0.  1.
          5    1    5    5  502    0 -0.47353658013E+01 -0.15505806082E+01 -0.63258806602E+02  0.63628567501E+02  0.47000000000E+01 0. -1.
         11    1    4    4    0    0  0.49212137344E+02 -0.40011530576E+02  0.81838110833E+01  0.63951010976E+02  0.00000000000E+00 0. -1.
        -12    1    4    4    0    0 -0.28966134522E+02 -0.57447572073E+02  0.81150629784E+01  0.64846856002E+02  0.00000000000E+00 0.  1.
         -5    1    3    3    0  504 -0.15735113904E+01  0.50733158678E+02  0.14958658969E+02  0.53124201695E+02  0.47000000000E+01 0.  1.
<mgrwt>
<rscale>  2 0.18017095E+03</rscale>
<asrwt>0</asrwt>
<pdfrwt beam="1">  1       21 0.30667432E-01 0.18049018E+03</pdfrwt>
<pdfrwt beam="2">  1       21 0.25098693E-01 0.18049018E+03</pdfrwt>
<totfact> 0.15405633E+05</totfact>
</mgrwt>
</event>
<event>
12    1  0.2791583E-001  0.2697602E+03  0.7546771E-02  0.1102015E+00
         21   -1    0    0  502  503  0.00000000000E+00  0.00000000000E+00  0.14240330962E+04  0.14240330962E+04  0.00000000000E+00 0. -1.
         21   -1    0    0  503  504 -0.00000000000E+00 -0.00000000000E+00 -0.94971729776E+02  0.94971729776E+02  0.00000000000E+00 0. -1.
         -6    2    1    2    0  504 -0.73061391790E+02  0.18868676446E+03  0.14104611922E+03  0.30074754083E+03  0.17208838868E+03 0.  0.
        -24    2    3    3    0    0 -0.93330376342E+02  0.13524421893E+03  0.43689280538E+02  0.18775470281E+03  0.79633644214E+02 0.  0.
          6    2    1    2  502    0  0.73061391790E+02 -0.18868676446E+03  0.11880152473E+04  0.12182572852E+04  0.17840942563E+03 0.  0.
         24    2    5    5    0    0  0.64957341750E+02 -0.53969930212E+02  0.77654117352E+03  0.78518996431E+03  0.79842822262E+02 0.  0.
          2    1    6    6  501    0  0.13687700476E+02 -0.18718794393E+02  0.54323870893E+03  0.54373342852E+03  0.00000000000E+00 0. -1.
         -1    1    6    6    0  501  0.51269641273E+02 -0.35251135819E+02  0.23330246459E+03  0.24145653579E+03  0.00000000000E+00 0.  1.
          5    1    5    5  502    0  0.81040500401E+01 -0.13471683425E+03  0.41147407374E+03  0.43306732088E+03  0.47000000000E+01 0. -1.
         13    1    4    4    0    0 -0.71205098095E+02  0.54631365320E+02  0.52040254669E+02  0.10374459108E+03  0.00000000000E+00 0. -1.
        -14    1    4    4    0    0 -0.22125278247E+02  0.80612853605E+02 -0.83509741307E+01  0.84010111730E+02  0.00000000000E+00 0.  1.
         -5    1    3    3    0  504  0.20268984552E+02  0.53442545536E+02  0.97356838677E+02  0.11299283803E+03  0.47000000000E+01 0.  1.
<mgrwt>
<rscale>  2 0.26871969E+03</rscale>
<asrwt>0</asrwt>
<pdfrwt beam="1">  1       21 0.21908200E+00 0.26976024E+03</pdfrwt>
<pdfrwt beam="2">  1       21 0.14611036E-01 0.26976024E+03</pdfrwt>
<totfact> 0.39273466E+03</totfact>
</mgrwt>
</event>
<event>
12    1  0.2791583E-001  0.2012954E+03  0.7546771E-02  0.1148770E+00
         21   -1    0    0  502  503  0.00000000000E+00  0.00000000000E+00  0.21166776537E+03  0.21166776537E+03  0.00000000000E+00 0. -1.
         21   -1    0    0  503  504 -0.00000000000E+00 -0.00000000000E+00 -0.26747017501E+03  0.26747017501E+03  0.00000000000E+00 0.  1.
         -6    2    1    2    0  504 -0.99072533071E+02 -0.26533339754E+02 -0.15606176311E+03  0.25425622450E+03  0.17254439680E+03 0.  0.
        -24    2    3    3    0    0 -0.57047701344E+02 -0.79548746623E+02 -0.69381052135E+02  0.14420007746E+03  0.79984302370E+02 0.  0.
          6    2    1    2  502    0  0.99072533071E+02  0.26533339754E+02  0.10025935347E+03  0.22488171588E+03  0.17320641805E+03 0.  0.
         24    2    5    5    0    0  0.34526122191E+02 -0.46151249670E+02  0.25886871964E+02  0.10239643227E+03  0.80578584260E+02 0.  0.
          4    1    6    6  501    0  0.20648711941E+02 -0.35781102688E+02  0.54838179671E+02  0.68657720353E+02  0.00000000000E+00 0. -1.
         -3    1    6    6    0  501  0.13877410250E+02 -0.10370146982E+02 -0.28951307707E+02  0.33738711915E+02  0.00000000000E+00 0.  1.
          5    1    5    5  502    0  0.64546410880E+02  0.72684589425E+02  0.74372481507E+02  0.12248528362E+03  0.47000000000E+01 0. -1.
         11    1    4    4    0    0 -0.46951492416E+02 -0.28208816270E+02  0.30363892391E+01  0.54857994997E+02  0.00000000000E+00 0. -1.
        -12    1    4    4    0    0 -0.10096208927E+02 -0.51339930354E+02 -0.72417441374E+02  0.89342082461E+02  0.00000000000E+00 0.  1.
         -5    1    3    3    0  504 -0.42024831727E+02  0.53015406869E+02 -0.86680710975E+02  0.11005614704E+03  0.47000000000E+01 0.  1.
<mgrwt>
<rscale>  2 0.20115293E+03</rscale>
<asrwt>0</asrwt>
<pdfrwt beam="1">  1       21 0.32564272E-01 0.20129543E+03</pdfrwt>
<pdfrwt beam="2">  1       21 0.41149258E-01 0.20129543E+03</pdfrwt>
<totfact> 0.51401447E+04</totfact>
</mgrwt>
</event>
<event>
12    1  0.2791583E-001  0.1941013E+03  0.7546771E-02  0.1155129E+00
         21   -1    0    0  502  503  0.00000000000E+00  0.00000000000E+00  0.24998331709E+03  0.24998331709E+03  0.00000000000E+00 0.  1.
         21   -1    0    0  503  504 -0.00000000000E+00 -0.00000000000E+00 -0.23302509204E+03  0.23302509204E+03  0.00000000000E+00 0.  1.
         -6    2    1    2    0  504 -0.78239565974E+02 -0.39121788892E+02 -0.13604023048E+03  0.23585694018E+03  0.17166714268E+03 0.  0.
        -24    2    3    3    0    0 -0.97872921343E+02  0.13868890947E+02 -0.12315031816E+03  0.17770437676E+03  0.81494722466E+02 0.  0.
          6    2    1    2  502    0  0.78239565974E+02  0.39121788892E+02  0.15299845552E+03  0.24715146894E+03  0.17327255166E+03 0.  0.
         24    2    5    5    0    0  0.52067801479E+02 -0.11028108808E+02  0.18071810804E+02  0.10077092737E+03  0.83639191307E+02 0.  0.
          4    1    6    6  501    0  0.48266165266E+02  0.96618327165E+01 -0.23222889133E+02  0.54426797633E+02  0.00000000000E+00 0. -1.
         -3    1    6    6    0  501  0.38016362131E+01 -0.20689941525E+02  0.41294699937E+02  0.46344129737E+02  0.00000000000E+00 0.  1.
          5    1    5    5  502    0  0.26171764495E+02  0.50149897700E+02  0.13492664472E+03  0.14638054157E+03  0.47000000000E+01 0. -1.
         13    1    4    4    0    0 -0.72613495144E+02 -0.26649564494E+01 -0.27984778177E+02  0.77865072269E+02  0.00000000000E+00 0. -1.
        -14    1    4    4    0    0 -0.25259426199E+02  0.16533847396E+02 -0.95165539984E+02  0.99839304495E+02  0.00000000000E+00 0.  1.
         -5    1    3    3    0  504  0.19633355369E+02 -0.52990679838E+02 -0.12889912317E+02  0.58152563420E+02  0.47000000000E+01 0.  1.
<mgrwt>
<rscale>  2 0.19374238E+03</rscale>
<asrwt>0</asrwt>
<pdfrwt beam="1">  1       21 0.38458972E-01 0.19410132E+03</pdfrwt>
<pdfrwt beam="2">  1       21 0.35850014E-01 0.19410132E+03</pdfrwt>
<totfact> 0.48883727E+04</totfact>
</mgrwt>
</event>
<event>
12    1  0.2791583E-001  0.2062463E+03  0.7546771E-02  0.1144835E+00
         21   -1    0    0  502  503  0.00000000000E+00  0.00000000000E+00  0.62063342916E+02  0.62063342916E+02  0.00000000000E+00 0. -1.
         21   -1    0    0  503  504 -0.00000000000E+00 -0.00000000000E+00 -0.70093308847E+03  0.70093308847E+03  0.00000000000E+00 0. -1.
         -6    2    1    2    0  504  0.56128720851E+02  0.95346438170E+02 -0.25627870197E+03  0.32896250381E+03  0.17405797670E+03 0.  0.
        -24    2    3    3    0    0  0.81298106725E+02  0.10374792384E+03 -0.25955299582E+03  0.30181671322E+03  0.79702928907E+02 0.  0.
          6    2    1    2  502    0 -0.56128720851E+02 -0.95346438170E+02 -0.38259104358E+03  0.43403392758E+03  0.17253453882E+03 0.  0.
         24    2    5    5    0    0  0.12385858150E+02 -0.94496083838E+02 -0.30507916075E+03  0.33047161485E+03  0.83995681754E+02 0.  0.
          4    1    6    6  501    0  0.15988901141E+02 -0.10461502624E+03 -0.30086151587E+03  0.31893196831E+03  0.00000000000E+00 0. -1.
         -3    1    6    6    0  501 -0.36030429910E+01  0.10118942398E+02 -0.42176448794E+01  0.11539646544E+02  0.00000000000E+00 0.  1.
          5    1    5    5  502    0 -0.68514579000E+02 -0.85035433196E+00 -0.77511882831E+02  0.10356231273E+03  0.47000000000E+01 0. -1.
         13    1    4    4    0    0  0.98485042288E+01  0.33188797376E+02 -0.15535568841E+02  0.37945265924E+02  0.00000000000E+00 0. -1.
        -14    1    4    4    0    0  0.71449602496E+02  0.70559126467E+02 -0.24401742698E+03  0.26387144729E+03  0.00000000000E+00 0.  1.
         -5    1    3    3    0  504 -0.25169385874E+02 -0.84014856738E+01  0.32742938493E+01  0.27145790595E+02  0.47000000000E+01 0.  1.
<mgrwt>
<rscale>  2 0.20592458E+03</rscale>
<asrwt>0</asrwt>
<pdfrwt beam="1">  1       21 0.95482072E-02 0.20624635E+03</pdfrwt>
<pdfrwt beam="2">  1       21 0.10783585E+00 0.20624635E+03</pdfrwt>
<totfact> 0.59920444E+04</totfact>
</mgrwt>
</event>
<event>
12    1  0.2791583E-001  0.3521246E+03  0.7546771E-02  0.1061927E+00
         21   -1    0    0  502  503  0.00000000000E+00  0.00000000000E+00  0.65229591234E+03  0.65229591234E+03  0.00000000000E+00 0. -1.
         21   -1    0    0  503  504 -0.00000000000E+00 -0.00000000000E+00 -0.40213100547E+03  0.40213100547E+03  0.00000000000E+00 0. -1.
         -6    2    1    2    0  504  0.96461459087E+02  0.28914725784E+03 -0.25847033808E+03  0.43680503443E+03  0.17629739826E+03 0.  0.
        -24    2    3    3    0    0 -0.15974096521E+02  0.99899761604E+02 -0.12130245275E+03  0.17739515073E+03  0.80744165924E+02 0.  0.
          6    2    1    2  502    0 -0.96461459087E+02 -0.28914725784E+03  0.50863524495E+03  0.61762188337E+03  0.17273108754E+03 0.  0.
         24    2    5    5    0    0 -0.12954428742E+03 -0.26032975267E+03  0.47305092285E+03  0.56093629336E+03  0.79492434056E+02 0.  0.
          4    1    6    6  501    0 -0.49001755457E+02 -0.18307977621E+03  0.28500536895E+03  0.34226807743E+03  0.00000000000E+00 0. -1.
         -3    1    6    6    0  501 -0.80542531965E+02 -0.77249976458E+02  0.18804555391E+03  0.21866821594E+03  0.00000000000E+00 0.  1.
          5    1    5    5  502    0  0.33082828335E+02 -0.28817505169E+02  0.35584322099E+02  0.56685590004E+02  0.47000000000E+01 0. -1.
         13    1    4    4    0    0 -0.77910230181E+01  0.11339236172E+03 -0.10638664889E+03  0.15568123458E+03  0.00000000000E+00 0. -1.
        -14    1    4    4    0    0 -0.81830735026E+01 -0.13492600119E+02 -0.14915803859E+02  0.21713916153E+02  0.00000000000E+00 0.  1.
         -5    1    3    3    0  504  0.11243555561E+03  0.18924749624E+03 -0.13716788533E+03  0.25940988370E+03  0.47000000000E+01 0.  1.
<mgrwt>
<rscale>  2 0.35168076E+03</rscale>
<asrwt>0</asrwt>
<pdfrwt beam="1">  1       21 0.10035322E+00 0.35212458E+03</pdfrwt>
<pdfrwt beam="2">  1       21 0.61866308E-01 0.35212458E+03</pdfrwt>
<totfact> 0.17720700E+03</totfact>
</mgrwt>
</event>
<event>
12    1  0.2791583E-001  0.2016557E+03  0.7546771E-02  0.1148649E+00
         21   -1    0    0  502  503  0.00000000000E+00  0.00000000000E+00  0.28066696636E+03  0.28066696636E+03  0.00000000000E+00 0.  1.
         21   -1    0    0  503  504 -0.00000000000E+00 -0.00000000000E+00 -0.21293518256E+03  0.21293518256E+03  0.00000000000E+00 0. -1.
         -6    2    1    2    0  504  0.91219545592E+02  0.49733005173E+02 -0.10677978875E+03  0.22692013049E+03  0.17116204321E+03 0.  0.
        -24    2    3    3    0    0  0.10795285997E+01  0.64517474001E+01 -0.90755534934E+02  0.12554283201E+03  0.86496503514E+02 0.  0.
          6    2    1    2  502    0 -0.91219545592E+02 -0.49733005173E+02  0.17451157255E+03  0.26668201844E+03  0.17283122606E+03 0.  0.
         24    2    5    5    0    0 -0.18214490065E+02  0.77122739679E+01  0.13294474754E+03  0.16480174964E+03  0.95362801805E+02 0.  0.
          4    1    6    6  501    0 -0.23572919070E+02  0.45131062646E+02  0.40939848055E+02  0.65334267332E+02  0.00000000000E+00 0. -1.
         -3    1    6    6    0  501  0.53584290049E+01 -0.37418788678E+02  0.92004899485E+02  0.99467482309E+02  0.00000000000E+00 0.  1.
          5    1    5    5  502    0 -0.73005055527E+02 -0.57445279141E+02  0.41566825011E+02  0.10188026879E+03  0.47000000000E+01 0. -1.
         13    1    4    4    0    0  0.13430466627E+02  0.42088451674E+02 -0.27936463262E+02  0.52271035743E+02  0.00000000000E+00 0. -1.
        -14    1    4    4    0    0 -0.12350938027E+02 -0.35636704274E+02 -0.62819071673E+02  0.73271796262E+02  0.00000000000E+00 0.  1.
         -5    1    3    3    0  504  0.90140016992E+02  0.43281257773E+02 -0.16024253819E+02  0.10137729849E+03  0.47000000000E+01 0.  1.
<mgrwt>
<rscale>  2 0.20129753E+03</rscale>
<asrwt>0</asrwt>
<pdfrwt beam="1">  1       21 0.43179533E-01 0.20165567E+03</pdfrwt>
<pdfrwt beam="2">  1       21 0.32759259E-01 0.20165567E+03</pdfrwt>
<totfact> 0.46044417E+04</totfact>
</mgrwt>
</event>
<event>
12    1  0.2791583E-001  0.1943676E+03  0.7546771E-02  0.1154921E+00
         21   -1    0    0  502  503  0.00000000000E+00  0.00000000000E+00  0.57826910033E+02  0.57826910033E+02  0.00000000000E+00 0.  1.
         21   -1    0    0  503  504 -0.00000000000E+00 -0.00000000000E+00 -0.77555566612E+03  0.77555566612E+03  0.00000000000E+00 0.  1.
         -6    2    1    2    0  504  0.77815216019E+02 -0.18901561727E+02 -0.52899065161E+03  0.56356887740E+03  0.17710531671E+03 0.  0.
        -24    2    3    3    0    0  0.35962809438E+02  0.55250575541E+02 -0.22949355770E+03  0.25216758861E+03  0.81087915015E+02 0.  0.
          6    2    1    2  502    0 -0.77815216019E+02  0.18901561727E+02 -0.18873810448E+03  0.26981369875E+03  0.17539921058E+03 0.  0.
         24    2    5    5    0    0  0.21316341061E+02  0.20985865246E+02 -0.63636193824E+02  0.11011401817E+03  0.84739240589E+02 0.  0.
          4    1    6    6  501    0  0.23405731773E+02  0.30784971669E+00  0.15644481670E+02  0.28154446505E+02  0.00000000000E+00 0. -1.
         -3    1    6    6    0  501 -0.20893907128E+01  0.20678015529E+02 -0.79280675495E+02  0.81959571660E+02  0.00000000000E+00 0.  1.
          5    1    5    5  502    0 -0.99131557079E+02 -0.20843035188E+01 -0.12510191065E+03  0.15969968058E+03  0.47000000000E+01 0. -1.
         13    1    4    4    0    0 -0.11086358907E+02  0.28722576745E+02 -0.16589704791E+03  0.16872973738E+03  0.00000000000E+00 0. -1.
        -14    1    4    4    0    0  0.47049168345E+02  0.26527998796E+02 -0.63596509783E+02  0.83437851235E+02  0.00000000000E+00 0.  1.
         -5    1    3    3    0  504  0.41852406581E+02 -0.74152137268E+02 -0.29949709391E+03  0.31140128879E+03  0.47000000000E+01 0.  1.
<mgrwt>
<rscale>  2 0.19397812E+03</rscale>
<asrwt>0</asrwt>
<pdfrwt beam="1">  1       21 0.88964488E-02 0.19436762E+03</pdfrwt>
<pdfrwt beam="2">  1       21 0.11931624E+00 0.19436762E+03</pdfrwt>
<totfact> 0.53349114E+04</totfact>
</mgrwt>
</event>
<event>
12    1  0.2791583E-001  0.1860532E+03  0.7546771E-02  0.1162194E+00
         21   -1    0    0  502  503  0.00000000000E+00  0.00000000000E+00  0.17502348398E+03  0.17502348398E+03  0.00000000000E+00 0.  1.
         21   -1    0    0  503  504 -0.00000000000E+00 -0.00000000000E+00 -0.23323427233E+03  0.23323427233E+03  0.00000000000E+00 0. -1.
         -6    2    1    2    0  504 -0.59332773459E+02  0.22745425804E+02 -0.10929176666E+03  0.21531979226E+03  0.17429914021E+03 0.  0.
        -24    2    3    3    0    0 -0.38180641538E+02  0.63299843800E+02 -0.13891680159E+02  0.10941728989E+03  0.79464035485E+02 0.  0.
          6    2    1    2  502    0  0.59332773459E+02 -0.22745425804E+02  0.51080978305E+02  0.19293796405E+03  0.17486583207E+03 0.  0.
         24    2    5    5    0    0  0.38595847230E+02 -0.65131057733E+02  0.79326082940E+02  0.13774341867E+03  0.83360229416E+02 0.  0.
          4    1    6    6  501    0 -0.14352476859E+02 -0.51488768989E+02  0.20018767711E+02  0.57077473531E+02  0.00000000000E+00 0. -1.
         -3    1    6    6    0  501  0.52948324089E+02 -0.13642288745E+02  0.59307315229E+02  0.80665945142E+02  0.00000000000E+00 0.  1.
          5    1    5    5  502    0  0.20736926229E+02  0.42385631929E+02 -0.28245104635E+02  0.55194545376E+02  0.47000000000E+01 0. -1.
         13    1    4    4    0    0  0.16485904742E+02  0.12594434631E+01 -0.20648978520E+02  0.26452817750E+02  0.00000000000E+00 0. -1.
        -14    1    4    4    0    0 -0.54666546280E+02  0.62040400337E+02  0.67572983603E+01  0.82964472139E+02  0.00000000000E+00 0.  1.
         -5    1    3    3    0  504 -0.21152131921E+02 -0.40554417996E+02 -0.95400086503E+02  0.10590250237E+03  0.47000000000E+01 0.  1.
<mgrwt>
<rscale>  2 0.18591992E+03</rscale>
<asrwt>0</asrwt>
<pdfrwt beam="1">  1       21 0.26926690E-01 0.18605320E+03</pdfrwt>
<pdfrwt beam="2">  1       21 0.35882196E-01 0.18605320E+03</pdfrwt>
<totfact> 0.98639480E+04</totfact>
</mgrwt>
</event>
<event>
12    1  0.2791583E-001  0.2056272E+03  0.7546771E-02  0.1145167E+00
         21   -1    0    0  502  503  0.00000000000E+00  0.00000000000E+00  0.54724641500E+03  0.54724641500E+03  0.00000000000E+00 0. -1.
         21   -1    0    0  503  504 -0.00000000000E+00 -0.00000000000E+00 -0.95338787606E+02  0.95338787606E+02  0.00000000000E+00 0.  1.
         -6    2    1    2    0  504  0.70134522458E+02 -0.84946547262E+02  0.85611189115E+02  0.22273713142E+03  0.17363118061E+03 0.  0.
        -24    2    3    3    0    0  0.29902811970E+02 -0.11117293286E+03  0.98265825979E+02  0.17285082403E+03  0.83472364578E+02 0.  0.
          6    2    1    2  502    0 -0.70134522458E+02  0.84946547262E+02  0.36629643828E+03  0.41984807119E+03  0.17310272976E+03 0.  0.
         24    2    5    5    0    0 -0.67746839740E+02  0.10964452523E+03  0.36409560622E+03  0.39449802570E+03  0.80321389435E+02 0.  0.
          4    1    6    6  501    0 -0.36186277505E+02  0.17292299106E+02  0.19654775121E+03  0.20059782849E+03  0.00000000000E+00 0. -1.
         -3    1    6    6    0  501 -0.31560562234E+02  0.92352226126E+02  0.16754785501E+03  0.19390019721E+03  0.00000000000E+00 0.  1.
          5    1    5    5  502    0 -0.23876827179E+01 -0.24697977971E+02  0.22008320570E+01  0.25350045490E+02  0.47000000000E+01 0. -1.
         11    1    4    4    0    0  0.10877008563E+00  0.79171593914E+01  0.32766392672E+02  0.33709490244E+02  0.00000000000E+00 0. -1.
        -12    1    4    4    0    0  0.29794041884E+02 -0.11909009225E+03  0.65499433307E+02  0.13914133379E+03  0.00000000000E+00 0.  1.
         -5    1    3    3    0  504  0.40231710488E+02  0.26226385601E+02 -0.12654636864E+02  0.49886307386E+02  0.47000000000E+01 0.  1.
<mgrwt>
<rscale>  2 0.20551562E+03</rscale>
<asrwt>0</asrwt>
<pdfrwt beam="1">  1       21 0.84191754E-01 0.20562722E+03</pdfrwt>
<pdfrwt beam="2">  1       21 0.14667506E-01 0.20562722E+03</pdfrwt>
<totfact> 0.49718413E+04</totfact>
</mgrwt>
</event>
<event>
12    1  0.2791583E-001  0.2210121E+03  0.7546771E-02  0.1133254E+00
         21   -1    0    0  502  503  0.00000000000E+00  0.00000000000E+00  0.98370251909E+03  0.98370251909E+03  0.00000000000E+00 0. -1.
         21   -1    0    0  503  504 -0.00000000000E+00 -0.00000000000E+00 -0.10632185958E+03  0.10632185958E+03  0.00000000000E+00 0. -1.
         -6    2    1    2    0  504  0.94220732128E+02 -0.99444745866E+02  0.40589450530E+02  0.22470832608E+03  0.17343449620E+03 0.  0.
        -24    2    3    3    0    0  0.95642998157E+02 -0.12889419568E+03  0.58858385111E+02  0.18970637034E+03  0.82236857149E+02 0.  0.
          6    2    1    2  502    0 -0.94220732128E+02  0.99444745866E+02  0.83679120898E+03  0.86531605259E+03  0.17258487650E+03 0.  0.
         24    2    5    5    0    0 -0.69987989123E+02 -0.10708280274E+02  0.43557695953E+03  0.44852368346E+03  0.80207362897E+02 0.  0.
          4    1    6    6  501    0 -0.57475660328E+02 -0.42199833398E+02  0.33102070588E+03  0.33861332695E+03  0.00000000000E+00 0. -1.
         -3    1    6    6    0  501 -0.12512328795E+02  0.31491553125E+02  0.10455625365E+03  0.10991035651E+03  0.00000000000E+00 0.  1.
          5    1    5    5  502    0 -0.24232743005E+02  0.11015302614E+03  0.40121424945E+03  0.41679236913E+03  0.47000000000E+01 0. -1.
         13    1    4    4    0    0 -0.12143408521E+01 -0.30761440511E+02 -0.13931035612E+02  0.33790747243E+02  0.00000000000E+00 0. -1.
        -14    1    4    4    0    0  0.96857339009E+02 -0.98132755169E+02  0.72789420723E+02  0.15591562310E+03  0.00000000000E+00 0.  1.
         -5    1    3    3    0  504 -0.14222660290E+01  0.29449449814E+02 -0.18268934581E+02  0.35001955742E+02  0.47000000000E+01 0.  1.
<mgrwt>
<rscale>  2 0.22084534E+03</rscale>
<asrwt>0</asrwt>
<pdfrwt beam="1">  1       21 0.15133884E+00 0.22101205E+03</pdfrwt>
<pdfrwt beam="2">  1       21 0.16357210E-01 0.22101205E+03</pdfrwt>
<totfact> 0.95752648E+03</totfact>
</mgrwt>
</event>
<event>
12    1  0.2791583E-001  0.2167043E+03  0.7546771E-02  0.1136650E+00
         21   -1    0    0  502  503  0.00000000000E+00  0.00000000000E+00  0.39224081840E+03  0.39224081840E+03  0.00000000000E+00 0. -1.
         21   -1    0    0  503  504 -0.00000000000E+00 -0.00000000000E+00 -0.11921246641E+03  0.11921246641E+03  0.00000000000E+00 0.  1.
         -6    2    1    2    0  504  0.11701501012E+03  0.49672093354E+02  0.12382914536E+03  0.24958845519E+03  0.17550188111E+03 0.  0.
        -24    2    3    3    0    0  0.14357756514E+03  0.71765442068E+02  0.10295697434E+03  0.20895075213E+03  0.85413595887E+02 0.  0.
          6    2    1    2  502    0 -0.11701501012E+03 -0.49672093354E+02  0.14919920663E+03  0.26186482963E+03  0.17364606614E+03 0.  0.
         24    2    5    5    0    0 -0.42800899205E+02  0.39113163658E+02  0.65372275198E+02  0.11889769860E+03  0.80631084725E+02 0.  0.
          2    1    6    6  501    0 -0.58844578674E+01 -0.96873450924E+01 -0.14421396051E+02  0.18342523365E+02  0.00000000000E+00 0. -1.
         -1    1    6    6    0  501 -0.36916441337E+02  0.48800508750E+02  0.79793671249E+02  0.10055517524E+03  0.00000000000E+00 0.  1.
          5    1    5    5  502    0 -0.74214110913E+02 -0.88785257012E+02  0.83826931431E+02  0.14296713103E+03  0.47000000000E+01 0. -1.
         11    1    4    4    0    0  0.65948991965E+02  0.79598791452E+02  0.51505022462E+02  0.11549027873E+03  0.00000000000E+00 0. -1.
        -12    1    4    4    0    0  0.77628573179E+02 -0.78333493842E+01  0.51451951881E+02  0.93460473403E+02  0.00000000000E+00 0.  1.
         -5    1    3    3    0  504 -0.26562555026E+02 -0.22093348714E+02  0.20872171016E+02  0.40637703058E+02  0.47000000000E+01 0.  1.
<mgrwt>
<rscale>  2 0.21632824E+03</rscale>
<asrwt>0</asrwt>
<pdfrwt beam="1">  1       21 0.60344741E-01 0.21670427E+03</pdfrwt>
<pdfrwt beam="2">  1       21 0.18340380E-01 0.21670427E+03</pdfrwt>
<totfact> 0.68675011E+04</totfact>
</mgrwt>
</event>
<event>
12    1  0.2791583E-001  0.2123935E+03  0.7546771E-02  0.1140632E+00
         21   -1    0    0  502  503  0.00000000000E+00  0.00000000000E+00  0.69724821575E+03  0.69724821575E+03  0.00000000000E+00 0. -1.
         21   -1    0    0  503  504 -0.00000000000E+00 -0.00000000000E+00 -0.12432131466E+03  0.12432131466E+03  0.00000000000E+00 0. -1.
         -6    2    1    2    0  504 -0.10866309951E+03 -0.40342799134E+02 -0.31146471895E+01  0.20761930261E+03  0.17222329446E+03 0.  0.
        -24    2    3    3    0    0 -0.54280666294E+02 -0.90656233283E+02 -0.81528041938E+01  0.13321255746E+03  0.80710432298E+02 0.  0.
          6    2    1    2  502    0  0.10866309951E+03  0.40342799134E+02  0.57604154827E+03  0.61395022780E+03  0.17797698233E+03 0.  0.
         24    2    5    5    0    0  0.11806040467E+03  0.10644082894E+02  0.26320953740E+03  0.29953604218E+03  0.79943882415E+02 0.  0.
          4    1    6    6  501    0  0.59215533621E+02  0.21137089336E+02  0.21101084452E+03  0.22017909182E+03  0.00000000000E+00 0. -1.
         -3    1    6    6    0  501  0.58844871047E+02 -0.10493006442E+02  0.52198692879E+02  0.79356950363E+02  0.00000000000E+00 0.  1.
          5    1    5    5  502    0 -0.93973051561E+01  0.29698716240E+02  0.31283201087E+03  0.31441418561E+03  0.47000000000E+01 0. -1.
         13    1    4    4    0    0 -0.42468899668E+02 -0.22859595498E+02  0.27696342339E+02  0.55617047066E+02  0.00000000000E+00 0. -1.
        -14    1    4    4    0    0 -0.11811766626E+02 -0.67796637786E+02 -0.35849146533E+02  0.77595510392E+02  0.00000000000E+00 0.  1.
         -5    1    3    3    0  504 -0.54382433218E+02  0.50313434150E+02  0.50381570043E+01  0.74406745156E+02  0.47000000000E+01 0.  1.
<mgrwt>
<rscale>  2 0.21118385E+03</rscale>
<asrwt>0</asrwt>
<pdfrwt beam="1">  1       21 0.10726895E+00 0.21239354E+03</pdfrwt>
<pdfrwt beam="2">  1       21 0.19126357E-01 0.21239354E+03</pdfrwt>
<totfact> 0.17193358E+04</totfact>
</mgrwt>
</event>
<event>
12    1  0.2791583E-001  0.2018652E+03  0.7546771E-02  0.1148224E+00
         21   -1    0    0  502  503  0.00000000000E+00  0.00000000000E+00  0.80886524260E+02  0.80886524260E+02  0.00000000000E+00 0.  1.
         21   -1    0    0  503  504 -0.00000000000E+00 -0.00000000000E+00 -0.56841451042E+03  0.56841451042E+03  0.00000000000E+00 0.  1.
         -6    2    1    2    0  504  0.83131097898E+02 -0.62044614890E+02 -0.35385504618E+03  0.40738553152E+03  0.17317408556E+03 0.  0.
        -24    2    3    3    0    0  0.29662623751E+02  0.20592736931E+02 -0.22055107843E+03  0.24161506533E+03  0.91821182379E+02 0.  0.
          6    2    1    2  502    0 -0.83131097898E+02  0.62044614890E+02 -0.13367293998E+03  0.24191550317E+03  0.17289980368E+03 0.  0.
         24    2    5    5    0    0 -0.12514888988E+01 -0.17364047911E+02 -0.80783208487E+02  0.11610048103E+03  0.81549485204E+02 0.  0.
          4    1    6    6  501    0  0.14231018431E+02 -0.25279790829E+02 -0.91286873637E+02  0.95785609610E+02  0.00000000000E+00 0. -1.
         -3    1    6    6    0  501 -0.15482507329E+02  0.79157429180E+01  0.10503665150E+02  0.20314871418E+02  0.00000000000E+00 0.  1.
          5    1    5    5  502    0 -0.81879608999E+02  0.79408662802E+02 -0.52889731497E+02  0.12581502214E+03  0.47000000000E+01 0. -1.
         13    1    4    4    0    0 -0.89410960930E+01 -0.31018085987E+02 -0.97529302634E+02  0.10273280747E+03  0.00000000000E+00 0. -1.
        -14    1    4    4    0    0  0.38603719844E+02  0.51610822918E+02 -0.12302177580E+03  0.13888225786E+03  0.00000000000E+00 0.  1.
         -5    1    3    3    0  504  0.53468474147E+02 -0.82637351822E+02 -0.13330396774E+03  0.16577046619E+03  0.47000000000E+01 0.  1.
<mgrwt>
<rscale>  2 0.20180641E+03</rscale>
<asrwt>0</asrwt>
<pdfrwt beam="1">  1       21 0.12444081E-01 0.20186525E+03</pdfrwt>
<pdfrwt beam="2">  1       21 0.87448383E-01 0.20186525E+03</pdfrwt>
<totfact> 0.61456261E+04</totfact>
</mgrwt>
</event>
<event>
12    1  0.2791583E-001  0.2183228E+03  0.7546771E-02  0.1135164E+00
         21   -1    0    0  502  503  0.00000000000E+00  0.00000000000E+00  0.85649361562E+02  0.85649361562E+02  0.00000000000E+00 0.  1.
         21   -1    0    0  503  504 -0.00000000000E+00 -0.00000000000E+00 -0.55991098226E+03  0.55991098226E+03  0.00000000000E+00 0. -1.
         -6    2    1    2    0  504 -0.97620720632E+02  0.91723478655E+02 -0.21072331260E+03  0.30333628862E+03  0.17223701079E+03 0.  0.
        -24    2    3    3    0    0  0.12846112419E+02  0.14719478424E+02 -0.79213857012E+02  0.11505627331E+03  0.81125983726E+02 0.  0.
          6    2    1    2  502    0  0.97620720632E+02 -0.91723478655E+02 -0.26353830810E+03  0.34222405520E+03  0.17240029725E+03 0.  0.
         24    2    5    5    0    0  0.24018285749E+02 -0.87023037655E+02 -0.88955735072E+02  0.15264405264E+03  0.85071716052E+02 0.  0.
          4    1    6    6  501    0 -0.20098067428E+02 -0.66694366595E+02 -0.28928379018E+02  0.75424942575E+02  0.00000000000E+00 0. -1.
         -3    1    6    6    0  501  0.44116353178E+02 -0.20328671060E+02 -0.60027356054E+02  0.77219110067E+02  0.00000000000E+00 0.  1.
          5    1    5    5  502    0  0.73602434883E+02 -0.47004410001E+01 -0.17458257303E+03  0.18958000256E+03  0.47000000000E+01 0. -1.
         13    1    4    4    0    0  0.30254126763E+02  0.12231576266E+02 -0.89096436479E+02  0.94884659653E+02  0.00000000000E+00 0. -1.
        -14    1    4    4    0    0 -0.17408014344E+02  0.24879021580E+01  0.98825794674E+01  0.20171613656E+02  0.00000000000E+00 0.  1.
         -5    1    3    3    0  504 -0.11046683305E+03  0.77004000231E+02 -0.13150945559E+03  0.18828001531E+03  0.47000000000E+01 0.  1.
<mgrwt>
<rscale>  2 0.21829061E+03</rscale>
<asrwt>0</asrwt>
<pdfrwt beam="1">  1       21 0.13176825E-01 0.21832284E+03</pdfrwt>
<pdfrwt beam="2">  1       21 0.86140152E-01 0.21832284E+03</pdfrwt>
<totfact> 0.56957081E+04</totfact>
</mgrwt>
</event>
<event>
12    1  0.2791583E-001  0.2158135E+03  0.7546771E-02  0.1137142E+00
         21   -1    0    0  502  503  0.00000000000E+00  0.00000000000E+00  0.88978003823E+02  0.88978003823E+02  0.00000000000E+00 0. -1.
         21   -1    0    0  503  504 -0.00000000000E+00 -0.00000000000E+00 -0.18298267626E+04  0.18298267626E+04  0.00000000000E+00 0.  1.
         -6    2    1    2    0  504 -0.12089609850E+03 -0.41622694906E+02 -0.16817540563E+04  0.16955448050E+04  0.17385961199E+03 0.  0.
        -24    2    3    3    0    0 -0.68518329090E+02 -0.82000748839E+02 -0.13921895610E+04  0.13984867217E+04  0.78450319758E+02 0.  0.
          6    2    1    2  502    0  0.12089609850E+03  0.41622694906E+02 -0.59094702428E+02  0.22325996133E+03  0.17321810273E+03 0.  0.
         24    2    5    5    0    0  0.14190853778E+03  0.61034119224E+02 -0.26547033160E+02  0.17967364726E+03  0.87833238277E+02 0.  0.
          2    1    6    6  501    0  0.66818516855E+02  0.40459582607E+02  0.29758297343E+02  0.83589761815E+02  0.00000000000E+00 0. -1.
         -1    1    6    6    0  501  0.75090020928E+02  0.20574536617E+02 -0.56305330503E+02  0.96083885450E+02  0.00000000000E+00 0.  1.
          5    1    5    5  502    0 -0.21012439283E+02 -0.19411424318E+02 -0.32547669268E+02  0.43586314061E+02  0.47000000000E+01 0. -1.
         11    1    4    4    0    0  0.28096224436E+01 -0.38854392621E+02 -0.22695423055E+03  0.23027327367E+03  0.00000000000E+00 0. -1.
        -12    1    4    4    0    0 -0.71327951534E+02 -0.43146356219E+02 -0.11652353305E+04  0.11682134480E+04  0.00000000000E+00 0.  1.
         -5    1    3    3    0  504 -0.52377769411E+02  0.40378053934E+02 -0.28956449528E+03  0.29705808337E+03  0.47000000000E+01 0.  1.
<mgrwt>
<rscale>  2 0.21568430E+03</rscale>
<asrwt>0</asrwt>
<pdfrwt beam="1">  1       21 0.13688923E-01 0.21581353E+03</pdfrwt>
<pdfrwt beam="2">  1       21 0.28151182E+00 0.21581353E+03</pdfrwt>
<totfact> 0.19659295E+03</totfact>
</mgrwt>
</event>
<event>
12    1  0.2791583E-001  0.1883125E+03  0.7546771E-02  0.1160031E+00
         21   -1    0    0  502  503  0.00000000000E+00  0.00000000000E+00  0.54383452394E+02  0.54383452394E+02  0.00000000000E+00 0.  1.
         21   -1    0    0  503  504 -0.00000000000E+00 -0.00000000000E+00 -0.69550324181E+03  0.69550324181E+03  0.00000000000E+00 0.  1.
         -6    2    1    2    0  504 -0.40167836927E+02  0.63948168923E+02 -0.41476294055E+03  0.45543971107E+03  0.17232008047E+03 0.  0.
        -24    2    3    3    0    0 -0.44539925727E+02  0.99227112161E+02 -0.38722158592E+03  0.41022538578E+03  0.80712364389E+02 0.  0.
          6    2    1    2  502    0  0.40167836927E+02 -0.63948168923E+02 -0.22635684886E+03  0.29444698313E+03  0.17250733149E+03 0.  0.
         24    2    5    5    0    0  0.77573486810E+02 -0.11809046068E+02 -0.18903385735E+03  0.22006441481E+03  0.80854486665E+02 0.  0.
          2    1    6    6  501    0  0.56613722236E+02 -0.24382411150E+02 -0.51348538125E+02  0.80226478712E+02  0.00000000000E+00 0. -1.
         -1    1    6    6    0  501  0.20959764573E+02  0.12573365082E+02 -0.13768531923E+03  0.13983793610E+03  0.00000000000E+00 0.  1.
          5    1    5    5  502    0 -0.37405649883E+02 -0.52139122855E+02 -0.37322991510E+02  0.74382568324E+02  0.47000000000E+01 0. -1.
         13    1    4    4    0    0 -0.19345439147E+02 -0.10901006942E+02 -0.54637180892E+02  0.58977110000E+02  0.00000000000E+00 0. -1.
        -14    1    4    4    0    0 -0.25194486579E+02  0.11012811910E+03 -0.33258440503E+03  0.35124827578E+03  0.00000000000E+00 0.  1.
         -5    1    3    3    0  504  0.43720887998E+01 -0.35278943239E+02 -0.27541354631E+02  0.45214325290E+02  0.47000000000E+01 0.  1.
<mgrwt>
<rscale>  2 0.18826962E+03</rscale>
<asrwt>0</asrwt>
<pdfrwt beam="1">  1       21 0.83666859E-02 0.18831251E+03</pdfrwt>
<pdfrwt beam="2">  1       21 0.10700049E+00 0.18831251E+03</pdfrwt>
<totfact> 0.77639564E+04</totfact>
</mgrwt>
</event>
<event>
12    1  0.2791583E-001  0.2003978E+03  0.7546771E-02  0.1149441E+00
         21   -1    0    0  502  503  0.00000000000E+00  0.00000000000E+00  0.92676284189E+02  0.92676284189E+02  0.00000000000E+00 0. -1.
         21   -1    0    0  503  504 -0.00000000000E+00 -0.00000000000E+00 -0.43733474814E+03  0.43733474814E+03  0.00000000000E+00 0. -1.
         -6    2    1    2    0  504 -0.80531833544E+02 -0.60197031218E+02 -0.14587088196E+03  0.24786605060E+03  0.17334995258E+03 0.  0.
        -24    2    3    3    0    0 -0.49793392116E+02 -0.77219344762E+02 -0.28888134562E+02  0.12562995067E+03  0.80660715856E+02 0.  0.
          6    2    1    2  502    0  0.80531833544E+02  0.60197031218E+02 -0.19878758200E+03  0.28214498173E+03  0.17314799790E+03 0.  0.
         24    2    5    5    0    0  0.86662087676E+02 -0.17153850561E+02 -0.14423742929E+03  0.18717894523E+03  0.80168257428E+02 0.  0.
          2    1    6    6  501    0 -0.13593189875E+02  0.39562589200E+01 -0.33218841866E+02  0.36109808232E+02  0.00000000000E+00 0. -1.
         -1    1    6    6    0  501  0.10025527755E+03 -0.21110109481E+02 -0.11101858743E+03  0.15106913700E+03  0.00000000000E+00 0.  1.
          5    1    5    5  502    0 -0.61302541322E+01  0.77350881779E+02 -0.54550152703E+02  0.94966036495E+02  0.47000000000E+01 0. -1.
         11    1    4    4    0    0 -0.61367455298E+02 -0.31329275455E+02 -0.36051555355E+02  0.77763762215E+02  0.00000000000E+00 0. -1.
        -12    1    4    4    0    0  0.11574063182E+02 -0.45890069307E+02  0.71634207930E+01  0.47866188453E+02  0.00000000000E+00 0.  1.
         -5    1    3    3    0  504 -0.30738441427E+02  0.17022313544E+02 -0.11698274740E+03  0.12223609994E+03  0.47000000000E+01 0.  1.
<mgrwt>
<rscale>  2 0.20035408E+03</rscale>
<asrwt>0</asrwt>
<pdfrwt beam="1">  1       21 0.14257890E-01 0.20039777E+03</pdfrwt>
<pdfrwt beam="2">  1       21 0.67282268E-01 0.20039777E+03</pdfrwt>
<totfact> 0.86664410E+04</totfact>
</mgrwt>
</event>
<event>
12    1  0.2791583E-001  0.2549477E+03  0.7546771E-02  0.1110229E+00
         21   -1    0    0  502  503  0.00000000000E+00  0.00000000000E+00  0.63126188183E+03  0.63126188183E+03  0.00000000000E+00 0.  1.
         21   -1    0    0  503  504 -0.00000000000E+00 -0.00000000000E+00 -0.10297101855E+03  0.10297101855E+03  0.00000000000E+00 0. -1.
         -6    2    1    2    0  504 -0.14970637776E+03  0.11218416398E+03  0.25729025077E+03  0.36221071904E+03  0.17320809928E+03 0.  0.
        -24    2    3    3    0    0 -0.14924531466E+03  0.74961472185E+02  0.12158408150E+03  0.22141300691E+03  0.79672106124E+02 0.  0.
          6    2    1    2  502    0  0.14970637776E+03 -0.11218416398E+03  0.27100061251E+03  0.37202218133E+03  0.17309501792E+03 0.  0.
         24    2    5    5    0    0  0.24767331798E+02 -0.88936982378E+02  0.17383342228E+03  0.21197921986E+03  0.78701482771E+02 0.  0.
          4    1    6    6  501    0 -0.15534367509E+01  0.11258316950E+02  0.23072616569E+01  0.11596823817E+02  0.00000000000E+00 0. -1.
         -3    1    6    6    0  501  0.26320768549E+02 -0.10019529933E+03  0.17152616062E+03  0.20038239604E+03  0.00000000000E+00 0.  1.
          5    1    5    5  502    0  0.12493904597E+03 -0.23247181604E+02  0.97167190235E+02  0.16004296148E+03  0.47000000000E+01 0. -1.
         11    1    4    4    0    0 -0.52682070866E+02 -0.69300636189E+01  0.13211374998E+02  0.54753692130E+02  0.00000000000E+00 0. -1.
        -12    1    4    4    0    0 -0.96563243797E+02  0.81891535804E+02  0.10837270650E+03  0.16665931478E+03  0.00000000000E+00 0.  1.
         -5    1    3    3    0  504 -0.46106310159E+00  0.37222691797E+02  0.13570616927E+03  0.14079771214E+03  0.47000000000E+01 0.  1.
<mgrwt>
<rscale>  2 0.25492850E+03</rscale>
<asrwt>0</asrwt>
<pdfrwt beam="1">  1       21 0.97117210E-01 0.25494770E+03</pdfrwt>
<pdfrwt beam="2">  1       21 0.15841696E-01 0.25494770E+03</pdfrwt>
<totfact> 0.30252901E+04</totfact>
</mgrwt>
</event>
<event>
12    1  0.2791583E-001  0.2402202E+03  0.7546771E-02  0.1119779E+00
         21   -1    0    0  502  503  0.00000000000E+00  0.00000000000E+00  0.17855928619E+03  0.17855928619E+03  0.00000000000E+00 0.  1.
         21   -1    0    0  503  504 -0.00000000000E+00 -0.00000000000E+00 -0.57976331341E+03  0.57976331341E+03  0.00000000000E+00 0. -1.
         -6    2    1    2    0  504  0.11107567649E+03 -0.12594485092E+03 -0.45355528598E+03  0.51324277150E+03  0.17177262202E+03 0.  0.
        -24    2    3    3    0    0  0.10491178809E+03 -0.41280817347E+02 -0.17888488196E+03  0.22571553289E+03  0.78975386236E+02 0.  0.
          6    2    1    2  502    0 -0.11107567649E+03  0.12594485092E+03  0.52351258754E+02  0.24507982811E+03  0.17065625237E+03 0.  0.
         24    2    5    5    0    0 -0.60190985215E+02  0.10564584559E+03  0.98185895720E+02  0.17349627295E+03  0.75342466222E+02 0.  0.
          2    1    6    6  501    0  0.85353417826E+01  0.36136504487E+02  0.33154099069E+01  0.37278558968E+02  0.00000000000E+00 0. -1.
         -1    1    6    6    0  501 -0.68726326998E+02  0.69509341105E+02  0.94870485813E+02  0.13621771398E+03  0.00000000000E+00 0.  1.
          5    1    5    5  502    0 -0.50884691277E+02  0.20299005327E+02 -0.45834636967E+02  0.71583555161E+02  0.47000000000E+01 0. -1.
         13    1    4    4    0    0  0.23363330590E+01 -0.16177053975E+02 -0.77911552783E+02  0.79607572407E+02  0.00000000000E+00 0. -1.
        -14    1    4    4    0    0  0.10257545503E+03 -0.25103763372E+02 -0.10097332918E+03  0.14610796048E+03  0.00000000000E+00 0.  1.
         -5    1    3    3    0  504  0.61638884020E+01 -0.84664033572E+02 -0.27467040402E+03  0.28752723861E+03  0.47000000000E+01 0.  1.
<mgrwt>
<rscale>  2 0.24002070E+03</rscale>
<asrwt>0</asrwt>
<pdfrwt beam="1">  1       21 0.27470659E-01 0.24022020E+03</pdfrwt>
<pdfrwt beam="2">  1       21 0.89194356E-01 0.24022020E+03</pdfrwt>
<totfact> 0.13168322E+04</totfact>
</mgrwt>
</event>
<event>
12    1  0.2791583E-001  0.2066308E+03  0.7546771E-02  0.1144274E+00
         21   -1    0    0  502  503  0.00000000000E+00  0.00000000000E+00  0.23981764859E+03  0.23981764859E+03  0.00000000000E+00 0.  1.
         21   -1    0    0  503  504 -0.00000000000E+00 -0.00000000000E+00 -0.22682354690E+03  0.22682354690E+03  0.00000000000E+00 0.  1.
         -6    2    1    2    0  504  0.11087876536E+03  0.21837156336E+02 -0.10176744669E+03  0.23033214753E+03  0.17298937243E+03 0.  0.
        -24    2    3    3    0    0  0.14563544543E+03  0.11151104636E+02 -0.66587212932E+02  0.17951918306E+03  0.80369459752E+02 0.  0.
          6    2    1    2  502    0 -0.11087876536E+03 -0.21837156336E+02  0.11476154838E+03  0.23630904796E+03  0.17291845233E+03 0.  0.
         24    2    5    5    0    0 -0.64453535854E+02 -0.60053132571E+02  0.12727309488E+03  0.17471041510E+03  0.81022536669E+02 0.  0.
          2    1    6    6  501    0 -0.67537243341E+02 -0.77010527411E+02  0.11012260412E+03  0.15039577291E+03  0.00000000000E+00 0. -1.
         -1    1    6    6    0  501  0.30837074872E+01  0.16957394840E+02  0.17150490752E+02  0.24314642186E+02  0.00000000000E+00 0.  1.
          5    1    5    5  502    0 -0.46425229508E+02  0.38215976235E+02 -0.12511546499E+02  0.61598632860E+02  0.47000000000E+01 0. -1.
         13    1    4    4    0    0  0.84069254951E+02  0.17668593897E+02  0.35339688351E+01  0.85978530890E+02  0.00000000000E+00 0. -1.
        -14    1    4    4    0    0  0.61566190482E+02 -0.65174892609E+01 -0.70121181767E+02  0.93540652174E+02  0.00000000000E+00 0.  1.
         -5    1    3    3    0  504 -0.34756680071E+02  0.10686051700E+02 -0.35180233762E+02  0.50812964469E+02  0.47000000000E+01 0.  1.
<mgrwt>
<rscale>  2 0.20661595E+03</rscale>
<asrwt>0</asrwt>
<pdfrwt beam="1">  1       21 0.36895023E-01 0.20663079E+03</pdfrwt>
<pdfrwt beam="2">  1       21 0.34895930E-01 0.20663079E+03</pdfrwt>
<totfact> 0.55716123E+04</totfact>
</mgrwt>
</event>
<event>
12    1  0.2791583E-001  0.2494650E+03  0.7546771E-02  0.1113655E+00
         21   -1    0    0  502  503  0.00000000000E+00  0.00000000000E+00  0.81404413540E+03  0.81404413540E+03  0.00000000000E+00 0.  1.
         21   -1    0    0  503  504 -0.00000000000E+00 -0.00000000000E+00 -0.10711965822E+03  0.10711965822E+03  0.00000000000E+00 0.  1.
         -6    2    1    2    0  504  0.17921448896E+03 -0.68977750129E+00  0.10695395895E+03  0.27142572287E+03  0.17353519774E+03 0.  0.
        -24    2    3    3    0    0  0.17085921422E+03  0.16437833481E+02  0.26676115153E+02  0.18878319218E+03  0.73921614409E+02 0.  0.
          6    2    1    2  502    0 -0.17921448896E+03  0.68977750129E+00  0.59997051823E+03  0.64973807076E+03  0.17342614856E+03 0.  0.
         24    2    5    5    0    0 -0.17751450622E+03  0.12592819946E+02  0.60652924958E+03  0.63525776283E+03  0.63282822280E+02 0.  0.
          4    1    6    6  501    0 -0.10632600655E+02 -0.16282795936E+02  0.57428389424E+02  0.60631687689E+02  0.00000000000E+00 0. -1.
         -3    1    6    6    0  501 -0.16688190557E+03  0.28875615882E+02  0.54910086016E+03  0.57462607514E+03  0.00000000000E+00 0.  1.
          5    1    5    5  502    0 -0.16999827364E+01 -0.11903042444E+02 -0.65587313590E+01  0.14480307931E+02  0.47000000000E+01 0. -1.
         11    1    4    4    0    0  0.76638408344E+02  0.23168356712E+02  0.46040756592E+02  0.92357834826E+02  0.00000000000E+00 0. -1.
        -12    1    4    4    0    0  0.94220805874E+02 -0.67305232312E+01 -0.19364641439E+02  0.96425357352E+02  0.00000000000E+00 0.  1.
         -5    1    3    3    0  504  0.83552747417E+01 -0.17127610982E+02  0.80277843801E+02  0.82642530693E+02  0.47000000000E+01 0.  1.
<mgrwt>
<rscale>  2 0.24944601E+03</rscale>
<asrwt>0</asrwt>
<pdfrwt beam="1">  1       21 0.12523755E+00 0.24946497E+03</pdfrwt>
<pdfrwt beam="2">  1       21 0.16479948E-01 0.24946497E+03</pdfrwt>
<totfact> 0.15143790E+04</totfact>
</mgrwt>
</event>
<event>
12    1  0.2791583E-001  0.2286940E+03  0.7546771E-02  0.1130000E+00
         21   -1    0    0  502  503  0.00000000000E+00  0.00000000000E+00  0.82501458411E+03  0.82501458411E+03  0.00000000000E+00 0.  1.
         21   -1    0    0  503  504 -0.00000000000E+00 -0.00000000000E+00 -0.79587791511E+02  0.79587791511E+02  0.00000000000E+00 0. -1.
         -6    2    1    2    0  504  0.10960710878E+03 -0.99798607384E+02  0.15540305120E+03  0.27649786127E+03  0.17414786428E+03 0.  0.
        -24    2    3    3    0    0  0.12550829090E+03 -0.95600447859E+02  0.65320352730E+02  0.18480568767E+03  0.70672604299E+02 0.  0.
          6    2    1    2  502    0 -0.10960710878E+03  0.99798607384E+02  0.59002374140E+03  0.62810451435E+03  0.15624911265E+03 0.  0.
         24    2    5    5    0    0 -0.52389337521E+02  0.41814209728E+00  0.24173670318E+03  0.26139440920E+03  0.84531567882E+02 0.  0.
          2    1    6    6  501    0  0.35405435704E+01 -0.25141892125E+02  0.23278123734E+02  0.34445917508E+02  0.00000000000E+00 0. -1.
         -1    1    6    6    0  501 -0.55929881092E+02  0.25560034222E+02  0.21845857944E+03  0.22694849169E+03  0.00000000000E+00 0.  1.
          5    1    5    5  502    0 -0.57217771259E+02  0.99380465286E+02  0.34828703822E+03  0.36671010515E+03  0.47000000000E+01 0. -1.
         11    1    4    4    0    0  0.38855923188E+02 -0.30868849588E+02 -0.12959556870E+02  0.51289557962E+02  0.00000000000E+00 0. -1.
        -12    1    4    4    0    0  0.86652367711E+02 -0.64731598271E+02  0.78279909600E+02  0.13351612971E+03  0.00000000000E+00 0.  1.
         -5    1    3    3    0  504 -0.15901182119E+02 -0.41981595251E+01  0.90082698468E+02  0.91692173600E+02  0.47000000000E+01 0.  1.
<mgrwt>
<rscale>  2 0.22528951E+03</rscale>
<asrwt>0</asrwt>
<pdfrwt beam="1">  1       21 0.12692531E+00 0.22869403E+03</pdfrwt>
<pdfrwt beam="2">  1       21 0.12244276E-01 0.22869403E+03</pdfrwt>
<totfact> 0.25440755E+04</totfact>
</mgrwt>
</event>
<event>
12    1  0.2791583E-001  0.2792747E+03  0.7546771E-02  0.1096121E+00
         21   -1    0    0  502  503  0.00000000000E+00  0.00000000000E+00  0.83889955393E+03  0.83889955393E+03  0.00000000000E+00 0. -1.
         21   -1    0    0  503  504 -0.00000000000E+00 -0.00000000000E+00 -0.17129318440E+03  0.17129318440E+03  0.00000000000E+00 0.  1.
         -6    2    1    2    0  504 -0.16252948681E+03 -0.14623980146E+03  0.67561590130E+03  0.73106167772E+03  0.17375965277E+03 0.  0.
        -24    2    3    3    0    0 -0.13734226515E+02 -0.43684719284E+02  0.30856229996E+03  0.32190643747E+03  0.79473755748E+02 0.  0.
          6    2    1    2  502    0  0.16252948681E+03  0.14623980146E+03 -0.80095317739E+01  0.27913106061E+03  0.17334382823E+03 0.  0.
         24    2    5    5    0    0  0.12872225225E+03  0.10870672135E+03 -0.69635749200E+02  0.19930912199E+03  0.80550723458E+02 0.  0.
          4    1    6    6  501    0  0.86749866676E+02  0.33654892031E+02 -0.64394537723E+02  0.11315850659E+03  0.00000000000E+00 0. -1.
         -3    1    6    6    0  501  0.41972385578E+02  0.75051829321E+02 -0.52412114768E+01  0.86150615397E+02  0.00000000000E+00 0.  1.
          5    1    5    5  502    0  0.33807234556E+02  0.37533080110E+02  0.61626217426E+02  0.79821938620E+02  0.47000000000E+01 0. -1.
         13    1    4    4    0    0 -0.18996368197E+02 -0.44834087828E+01  0.25273590666E+03  0.25348846418E+03  0.00000000000E+00 0. -1.
        -14    1    4    4    0    0  0.52621416822E+01 -0.39201310502E+02  0.55826393303E+02  0.68417973292E+02  0.00000000000E+00 0.  1.
         -5    1    3    3    0  504 -0.14879526029E+03 -0.10255508218E+03  0.36705360134E+03  0.40915524025E+03  0.47000000000E+01 0.  1.
<mgrwt>
<rscale>  2 0.27921000E+03</rscale>
<asrwt>0</asrwt>
<pdfrwt beam="1">  1       21 0.12906147E+00 0.27927465E+03</pdfrwt>
<pdfrwt beam="2">  1       21 0.26352798E-01 0.27927465E+03</pdfrwt>
<totfact> 0.56839200E+03</totfact>
</mgrwt>
</event>
<event>
12    1  0.2791583E-001  0.1864925E+03  0.7546771E-02  0.1161898E+00
         21   -1    0    0  502  503  0.00000000000E+00  0.00000000000E+00  0.21131944411E+03  0.21131944411E+03  0.00000000000E+00 0. -1.
         21   -1    0    0  503  504 -0.00000000000E+00 -0.00000000000E+00 -0.19426175876E+03  0.19426175876E+03  0.00000000000E+00 0.  1.
         -6    2    1    2    0  504  0.56394105772E+02 -0.37500063402E+02 -0.71936879463E+02  0.19894262221E+03  0.17267513539E+03 0.  0.
        -24    2    3    3    0    0 -0.12786397828E+02 -0.26967085480E+02 -0.93443554622E+02  0.12558382738E+03  0.78414820858E+02 0.  0.
          6    2    1    2  502    0 -0.56394105772E+02  0.37500063402E+02  0.88994564810E+02  0.20663858067E+03  0.17376110190E+03 0.  0.
         24    2    5    5    0    0 -0.17594466307E+02 -0.18642157460E+02  0.97785877369E+02  0.13766947046E+03  0.93454320420E+02 0.  0.
          4    1    6    6  501    0 -0.47892723726E+02  0.11105565434E+02  0.74452097863E+02  0.89219736861E+02  0.00000000000E+00 0. -1.
         -3    1    6    6    0  501  0.30298257419E+02 -0.29747722893E+02  0.23333779506E+02  0.48449733601E+02  0.00000000000E+00 0.  1.
          5    1    5    5  502    0 -0.38799639464E+02  0.56142220861E+02 -0.87913125583E+01  0.68969110204E+02  0.47000000000E+01 0. -1.
         13    1    4    4    0    0 -0.33483978261E+02 -0.44984482730E+02 -0.56964115252E+02  0.79935542240E+02  0.00000000000E+00 0. -1.
        -14    1    4    4    0    0  0.20697580433E+02  0.18017397250E+02 -0.36479439370E+02  0.45648285140E+02  0.00000000000E+00 0.  1.
         -5    1    3    3    0  504  0.69180503599E+02 -0.10532977922E+02  0.21506675159E+02  0.73358794827E+02  0.47000000000E+01 0.  1.
<mgrwt>
<rscale>  2 0.18623918E+03</rscale>
<asrwt>0</asrwt>
<pdfrwt beam="1">  1       21 0.32510683E-01 0.18649255E+03</pdfrwt>
<pdfrwt beam="2">  1       21 0.29886425E-01 0.18649255E+03</pdfrwt>
<totfact> 0.97966337E+04</totfact>
</mgrwt>
</event>
<event>
12    1  0.2791583E-001  0.1964811E+03  0.7546771E-02  0.1153162E+00
         21   -1    0    0  502  503  0.00000000000E+00  0.00000000000E+00  0.20447270029E+02  0.20447270029E+02  0.00000000000E+00 0. -1.
         21   -1    0    0  503  504 -0.00000000000E+00 -0.00000000000E+00 -0.21652705857E+04  0.21652705857E+04  0.00000000000E+00 0.  1.
         -6    2    1    2    0  504 -0.37511411166E+02  0.83496171984E+02 -0.14808936425E+04  0.14938710759E+04  0.17385653322E+03 0.  0.
        -24    2    3    3    0    0  0.35287623184E+02  0.30222866929E+02 -0.10157931180E+04  0.10200796319E+04  0.81044178516E+02 0.  0.
          6    2    1    2  502    0  0.37511411166E+02 -0.83496171984E+02 -0.66392967313E+03  0.69184677985E+03  0.17167014655E+03 0.  0.
         24    2    5    5    0    0  0.39176301696E+02 -0.32754261757E+02 -0.61050941540E+03  0.61800013300E+03  0.81208335927E+02 0.  0.
          2    1    6    6  501    0  0.24147913261E+02  0.16286427094E+02 -0.41003409287E+03  0.41106730196E+03  0.00000000000E+00 0. -1.
         -1    1    6    6    0  501  0.15028388435E+02 -0.49040688851E+02 -0.20047532252E+03  0.20693283104E+03  0.00000000000E+00 0.  1.
          5    1    5    5  502    0 -0.16648905298E+01 -0.50741910227E+02 -0.53420257736E+02  0.73846646847E+02  0.47000000000E+01 0. -1.
         11    1    4    4    0    0 -0.30886075489E+01 -0.17949266739E+02 -0.71608506176E+02  0.73888387652E+02  0.00000000000E+00 0. -1.
        -12    1    4    4    0    0  0.38376230733E+02  0.48172133667E+02 -0.94418461181E+03  0.94619124427E+03  0.00000000000E+00 0.  1.
         -5    1    3    3    0  504 -0.72799034350E+02  0.53273305055E+02 -0.46510052453E+03  0.47379144394E+03  0.47000000000E+01 0.  1.
<mgrwt>
<rscale>  2 0.19599629E+03</rscale>
<asrwt>0</asrwt>
<pdfrwt beam="1">  1       21 0.31457333E-02 0.19648107E+03</pdfrwt>
<pdfrwt beam="2">  1       21 0.33311861E+00 0.19648107E+03</pdfrwt>
<totfact> 0.12791111E+04</totfact>
</mgrwt>
</event>
<event>
12    1  0.2791583E-001  0.2808991E+03  0.7546771E-02  0.1096850E+00
         21   -1    0    0  502  503  0.00000000000E+00  0.00000000000E+00  0.37339488092E+03  0.37339488092E+03  0.00000000000E+00 0. -1.
         21   -1    0    0  503  504 -0.00000000000E+00 -0.00000000000E+00 -0.32624684396E+03  0.32624684396E+03  0.00000000000E+00 0.  1.
         -6    2    1    2    0  504  0.13183807353E+03  0.15847078298E+03 -0.19153970936E+03  0.33998787318E+03  0.19081411625E+03 0.  0.
        -24    2    3    3    0    0 -0.48149130691E+00  0.18438894566E+02 -0.25990272196E+02  0.85928621912E+02  0.79799806692E+02 0.  0.
          6    2    1    2  502    0 -0.13183807353E+03 -0.15847078298E+03  0.23868774633E+03  0.35965385170E+03  0.17287216695E+03 0.  0.
         24    2    5    5    0    0 -0.23633882600E+02 -0.72006640527E+01  0.10107197749E+03  0.12824299273E+03  0.74968730692E+02 0.  0.
          2    1    6    6  501    0 -0.13313613905E+02  0.35693839433E+01  0.10999901868E+03  0.11085926632E+03  0.00000000000E+00 0. -1.
         -1    1    6    6    0  501 -0.10320268695E+02 -0.10770047996E+02 -0.89270411900E+01  0.17383726418E+02  0.00000000000E+00 0.  1.
          5    1    5    5  502    0 -0.10820419093E+03 -0.15127011893E+03  0.13761576883E+03  0.23141085896E+03  0.47000000000E+01 0. -1.
         13    1    4    4    0    0  0.16688077408E+02  0.34063031809E+02  0.13381579480E+02  0.40222490388E+02  0.00000000000E+00 0. -1.
        -14    1    4    4    0    0 -0.17169568715E+02 -0.15624137243E+02 -0.39371851676E+02  0.45706131524E+02  0.00000000000E+00 0.  1.
         -5    1    3    3    0  504  0.13231956483E+03  0.14003188842E+03 -0.16554943717E+03  0.25405925127E+03  0.47000000000E+01 0.  1.
<mgrwt>
<rscale>  2 0.27788452E+03</rscale>
<asrwt>0</asrwt>
<pdfrwt beam="1">  1       21 0.57445366E-01 0.28089908E+03</pdfrwt>
<pdfrwt beam="2">  1       21 0.50191822E-01 0.28089908E+03</pdfrwt>
<totfact> 0.10212627E+04</totfact>
</mgrwt>
</event>
<event>
12    1  0.2791583E-001  0.2239039E+03  0.7546771E-02  0.1131050E+00
         21   -1    0    0  502  503  0.00000000000E+00  0.00000000000E+00  0.84155636703E+02  0.84155636703E+02  0.00000000000E+00 0. -1.
         21   -1    0    0  503  504 -0.00000000000E+00 -0.00000000000E+00 -0.67334711685E+03  0.67334711685E+03  0.00000000000E+00 0.  1.
         -6    2    1    2    0  504  0.48389087027E+02  0.13338342391E+03 -0.42388165775E+03  0.47938356819E+03  0.17320595878E+03 0.  0.
        -24    2    3    3    0    0 -0.14257886736E+02  0.38135896560E+02 -0.29075379319E+03  0.30405002003E+03  0.79063344763E+02 0.  0.
          6    2    1    2  502    0 -0.48389087027E+02 -0.13338342391E+03 -0.16530982240E+03  0.27811918537E+03  0.17288812096E+03 0.  0.
         24    2    5    5    0    0 -0.77157892598E+02 -0.14213660088E+03 -0.16870077343E+03  0.24749483509E+03  0.81471398304E+02 0.  0.
          2    1    6    6  501    0  0.14337301323E+01 -0.80749302162E+02 -0.65507742756E+02  0.10398927706E+03  0.00000000000E+00 0. -1.
         -1    1    6    6    0  501 -0.78591622731E+02 -0.61387298713E+02 -0.10319303067E+03  0.14350555803E+03  0.00000000000E+00 0.  1.
          5    1    5    5  502    0  0.28768805571E+02  0.87531769662E+01  0.33909510296E+01  0.30624350277E+02  0.47000000000E+01 0. -1.
         11    1    4    4    0    0 -0.66549036668E+01  0.62490639763E+02 -0.19037432624E+03  0.20047880659E+03  0.00000000000E+00 0. -1.
        -12    1    4    4    0    0 -0.76029830693E+01 -0.24354743203E+02 -0.10037946695E+03  0.10357121344E+03  0.00000000000E+00 0.  1.
         -5    1    3    3    0  504  0.62646973763E+02  0.95247527350E+02 -0.13312786456E+03  0.17533354816E+03  0.47000000000E+01 0.  1.
<mgrwt>
<rscale>  2 0.22384241E+03</rscale>
<asrwt>0</asrwt>
<pdfrwt beam="1">  1       21 0.12947021E-01 0.22390388E+03</pdfrwt>
<pdfrwt beam="2">  1       21 0.10359187E+00 0.22390388E+03</pdfrwt>
<totfact> 0.38010462E+04</totfact>
</mgrwt>
</event>
<event>
12    1  0.2791583E-001  0.1995540E+03  0.7546771E-02  0.1150787E+00
         21   -1    0    0  502  503  0.00000000000E+00  0.00000000000E+00  0.34673342159E+02  0.34673342159E+02  0.00000000000E+00 0. -1.
         21   -1    0    0  503  504 -0.00000000000E+00 -0.00000000000E+00 -0.13291410306E+04  0.13291410306E+04  0.00000000000E+00 0.  1.
         -6    2    1    2    0  504 -0.16464220366E+02 -0.96348909974E+02 -0.37920932106E+03  0.42705417926E+03  0.17035662545E+03 0.  0.
        -24    2    3    3    0    0  0.39934922064E+01 -0.12230595510E+03 -0.21886259489E+03  0.26326941565E+03  0.80220042037E+02 0.  0.
          6    2    1    2  502    0  0.16464220366E+02  0.96348909974E+02 -0.91525836741E+03  0.93676019353E+03  0.17397585484E+03 0.  0.
         24    2    5    5    0    0  0.53548278418E+02  0.53497184522E+02 -0.80673045333E+03  0.81423715133E+03  0.80241805826E+02 0.  0.
          2    1    6    6  501    0  0.73976227021E+02  0.44537029957E+02 -0.57684126242E+03  0.58326826695E+03  0.00000000000E+00 0. -1.
         -1    1    6    6    0  501 -0.20427948603E+02  0.89601545650E+01 -0.22988919091E+03  0.23096888438E+03  0.00000000000E+00 0.  1.
          5    1    5    5  502    0 -0.37084058052E+02  0.42851725452E+02 -0.10852791408E+03  0.12252304220E+03  0.47000000000E+01 0. -1.
         13    1    4    4    0    0 -0.28537972997E+02 -0.10289117154E+03 -0.14291772597E+03  0.17839979115E+03  0.00000000000E+00 0. -1.
        -14    1    4    4    0    0  0.32531465204E+02 -0.19414783550E+02 -0.75944868916E+02  0.84869624503E+02  0.00000000000E+00 0.  1.
         -5    1    3    3    0  504 -0.20457712573E+02  0.25957045121E+02 -0.16034672618E+03  0.16378476361E+03  0.47000000000E+01 0.  1.
<mgrwt>
<rscale>  2 0.19876243E+03</rscale>
<asrwt>0</asrwt>
<pdfrwt beam="1">  1       21 0.53343608E-02 0.19955396E+03</pdfrwt>
<pdfrwt beam="2">  1       21 0.20448322E+00 0.19955396E+03</pdfrwt>
<totfact> 0.30143848E+04</totfact>
</mgrwt>
</event>
<event>
12    1  0.2791583E-001  0.2029752E+03  0.7546771E-02  0.1147572E+00
         21   -1    0    0  502  503  0.00000000000E+00  0.00000000000E+00  0.11978920294E+04  0.11978920294E+04  0.00000000000E+00 0.  1.
         21   -1    0    0  503  504 -0.00000000000E+00 -0.00000000000E+00 -0.64841868221E+02  0.64841868221E+02  0.00000000000E+00 0.  1.
         -6    2    1    2    0  504 -0.28540531648E+02 -0.98967873975E+02  0.13090243590E+03  0.24023745440E+03  0.17311667957E+03 0.  0.
        -24    2    3    3    0    0 -0.21044841477E+01  0.16826143501E+02  0.61051268860E+02  0.10236651973E+03  0.80399620480E+02 0.  0.
          6    2    1    2  502    0  0.28540531648E+02  0.98967873975E+02  0.10021477253E+04  0.10224964432E+04  0.17489914547E+03 0.  0.
         24    2    5    5    0    0  0.25719585783E+02  0.11931515341E+03  0.52930651458E+03  0.54918590029E+03  0.80883643397E+02 0.  0.
          2    1    6    6  501    0 -0.68990171232E+01  0.58998831156E+02  0.38334230105E+03  0.38791723123E+03  0.00000000000E+00 0. -1.
         -1    1    6    6    0  501  0.32618602907E+02  0.60316322255E+02  0.14596421354E+03  0.16126866906E+03  0.00000000000E+00 0.  1.
          5    1    5    5  502    0  0.28209458646E+01 -0.20347279436E+02  0.47284121070E+03  0.47331054293E+03  0.47000000000E+01 0. -1.
         13    1    4    4    0    0 -0.11010828565E+02 -0.94281566904E+01 -0.15336709471E+02  0.21103154780E+02  0.00000000000E+00 0. -1.
        -14    1    4    4    0    0  0.89063444177E+01  0.26254300191E+02  0.76387978330E+02  0.81263364949E+02  0.00000000000E+00 0.  1.
         -5    1    3    3    0  504 -0.26436047500E+02 -0.11579401748E+03  0.69851167038E+02  0.13787093467E+03  0.47000000000E+01 0.  1.
<mgrwt>
<rscale>  2 0.20259059E+03</rscale>
<asrwt>0</asrwt>
<pdfrwt beam="1">  1       21 0.18429107E+00 0.20297515E+03</pdfrwt>
<pdfrwt beam="2">  1       21 0.99756729E-02 0.20297515E+03</pdfrwt>
<totfact> 0.13761330E+04</totfact>
</mgrwt>
</event>
<event>
12    1  0.2791583E-001  0.1786037E+03  0.7546771E-02  0.1169442E+00
         21   -1    0    0  502  503  0.00000000000E+00  0.00000000000E+00  0.33311095015E+03  0.33311095015E+03  0.00000000000E+00 0.  1.
         21   -1    0    0  503  504 -0.00000000000E+00 -0.00000000000E+00 -0.96238848241E+02  0.96238848241E+02  0.00000000000E+00 0. -1.
         -6    2    1    2    0  504  0.42456868143E+02  0.13502113718E+01  0.95966420299E+02  0.20275315906E+03  0.17347876228E+03 0.  0.
        -24    2    3    3    0    0  0.26539863889E+01  0.56634291207E+02  0.89558782520E+02  0.13416929288E+03  0.82256531899E+02 0.  0.
          6    2    1    2  502    0 -0.42456868143E+02 -0.13502113718E+01  0.14090568161E+03  0.22659663933E+03  0.17229978851E+03 0.  0.
         24    2    5    5    0    0  0.34833673029E+01  0.26060549999E+02  0.15090106829E+03  0.17197198531E+03  0.78178930713E+02 0.  0.
          2    1    6    6  501    0 -0.22779508886E+02  0.44770669830E+02  0.92620506732E+02  0.10536544580E+03  0.00000000000E+00 0. -1.
         -1    1    6    6    0  501  0.26262876189E+02 -0.18710119832E+02  0.58280561557E+02  0.66606539508E+02  0.00000000000E+00 0.  1.
          5    1    5    5  502    0 -0.45940235446E+02 -0.27410761370E+02 -0.99953866774E+01  0.54624654018E+02  0.47000000000E+01 0. -1.
         13    1    4    4    0    0  0.64820868275E+01 -0.10584218867E+01 -0.14055439577E+02  0.15514286585E+02  0.00000000000E+00 0. -1.
        -14    1    4    4    0    0 -0.38281004386E+01  0.57692713094E+02  0.10361422210E+03  0.11865500629E+03  0.00000000000E+00 0.  1.
         -5    1    3    3    0  504  0.39802881754E+02 -0.55284079836E+02  0.64076377784E+01  0.68583866187E+02  0.47000000000E+01 0.  1.
<mgrwt>
<rscale>  2 0.17831680E+03</rscale>
<asrwt>0</asrwt>
<pdfrwt beam="1">  1       21 0.51247838E-01 0.17860372E+03</pdfrwt>
<pdfrwt beam="2">  1       21 0.14805977E-01 0.17860372E+03</pdfrwt>
<totfact> 0.14605460E+05</totfact>
</mgrwt>
</event>
<event>
12    1  0.2791583E-001  0.2241541E+03  0.7546771E-02  0.1131190E+00
         21   -1    0    0  502  503  0.00000000000E+00  0.00000000000E+00  0.29821044406E+03  0.29821044406E+03  0.00000000000E+00 0. -1.
         21   -1    0    0  503  504 -0.00000000000E+00 -0.00000000000E+00 -0.29935701205E+03  0.29935701205E+03  0.00000000000E+00 0.  1.
         -6    2    1    2    0  504 -0.22399285403E+02  0.14069107509E+03 -0.19925377859E+03  0.29841614783E+03  0.17045357845E+03 0.  0.
        -24    2    3    3    0    0  0.14069781180E+02  0.16324695082E+02 -0.12182313322E+03  0.14737117394E+03  0.80080788644E+02 0.  0.
          6    2    1    2  502    0  0.22399285403E+02 -0.14069107509E+03  0.19810721060E+03  0.29915130827E+03  0.17305875232E+03 0.  0.
         24    2    5    5    0    0  0.74396835043E+02 -0.12748678185E+03  0.13320984750E+03  0.21481948590E+03  0.81331294340E+02 0.  0.
          2    1    6    6  501    0  0.75509147603E+02 -0.71395937174E+02  0.11686410384E+03  0.15638487773E+03  0.00000000000E+00 0. -1.
         -1    1    6    6    0  501 -0.11123125597E+01 -0.56090844673E+02  0.16345743660E+02  0.58434608163E+02  0.00000000000E+00 0.  1.
          5    1    5    5  502    0 -0.51997549640E+02 -0.13204293246E+02  0.64897363096E+02  0.84331822378E+02  0.47000000000E+01 0. -1.
         11    1    4    4    0    0  0.14813339120E+02 -0.23545314343E+02 -0.11569272601E+02  0.30127477689E+02  0.00000000000E+00 0. -1.
        -12    1    4    4    0    0 -0.74355794079E+00  0.39870009425E+02 -0.11025386062E+03  0.11724369625E+03  0.00000000000E+00 0.  1.
         -5    1    3    3    0  504 -0.36469066583E+02  0.12436638001E+03 -0.77430645376E+02  0.15104497389E+03  0.47000000000E+01 0.  1.
<mgrwt>
<rscale>  2 0.22365107E+03</rscale>
<asrwt>0</asrwt>
<pdfrwt beam="1">  1       21 0.45878530E-01 0.22415405E+03</pdfrwt>
<pdfrwt beam="2">  1       21 0.46054925E-01 0.22415405E+03</pdfrwt>
<totfact> 0.20205142E+04</totfact>
</mgrwt>
</event>
<event>
12    1  0.2791583E-001  0.2234032E+03  0.7546771E-02  0.1131491E+00
         21   -1    0    0  502  503  0.00000000000E+00  0.00000000000E+00  0.14746068182E+04  0.14746068182E+04  0.00000000000E+00 0. -1.
         21   -1    0    0  503  504 -0.00000000000E+00 -0.00000000000E+00 -0.45346431971E+02  0.45346431971E+02  0.00000000000E+00 0. -1.
         -6    2    1    2    0  504 -0.10113228005E+03  0.98008090402E+02  0.32946751892E+03  0.39769956564E+03  0.17257686586E+03 0.  0.
        -24    2    3    3    0    0 -0.11685256342E+03  0.22433781249E+02  0.19425342251E+03  0.24193196509E+03  0.81479368265E+02 0.  0.
          6    2    1    2  502    0  0.10113228005E+03 -0.98008090402E+02  0.10997928673E+04  0.11222536845E+04  0.17342334795E+03 0.  0.
         24    2    5    5    0    0  0.91302790371E+02 -0.99195667762E+02  0.11000735092E+04  0.11112902011E+04  0.81413792251E+02 0.  0.
          2    1    6    6  501    0  0.10260036376E+03 -0.90281738434E+02  0.10587174630E+04  0.10675018938E+04  0.00000000000E+00 0. -1.
         -1    1    6    6    0  501 -0.11297573391E+02 -0.89139293285E+01  0.41356046177E+02  0.43788307298E+02  0.00000000000E+00 0.  1.
          5    1    5    5  502    0  0.98294896778E+01  0.11875773602E+01 -0.28064189259E+00  0.10963483351E+02  0.47000000000E+01 0. -1.
         13    1    4    4    0    0 -0.89799197934E+02 -0.17139288986E+02  0.95756162184E+02  0.13238917544E+03  0.00000000000E+00 0. -1.
        -14    1    4    4    0    0 -0.27053365491E+02  0.39573070235E+02  0.98497260327E+02  0.10954278965E+03  0.00000000000E+00 0.  1.
         -5    1    3    3    0  504  0.15720283376E+02  0.75574309153E+02  0.13521409641E+03  0.15576760055E+03  0.47000000000E+01 0.  1.
<mgrwt>
<rscale>  2 0.22323888E+03</rscale>
<asrwt>0</asrwt>
<pdfrwt beam="1">  1       21 0.22686255E+00 0.22340318E+03</pdfrwt>
<pdfrwt beam="2">  1       21 0.69763753E-02 0.22340318E+03</pdfrwt>
<totfact> 0.13552913E+04</totfact>
</mgrwt>
</event>
<event>
12    1  0.2791583E-001  0.3390300E+03  0.7546771E-02  0.1067303E+00
         21   -1    0    0  502  503  0.00000000000E+00  0.00000000000E+00  0.98885621352E+03  0.98885621352E+03  0.00000000000E+00 0.  1.
         21   -1    0    0  503  504 -0.00000000000E+00 -0.00000000000E+00 -0.11642699737E+03  0.11642699737E+03  0.00000000000E+00 0.  1.
         -6    2    1    2    0  504  0.97011714248E+02 -0.27434140802E+03  0.40094954901E+03  0.52507323944E+03  0.17397380572E+03 0.  0.
        -24    2    3    3    0    0  0.23223335491E+02 -0.10688907743E+03  0.26288526361E+03  0.29579427233E+03  0.80131089686E+02 0.  0.
          6    2    1    2  502    0 -0.97011714248E+02  0.27434140802E+03  0.47147966714E+03  0.58020997145E+03  0.17226738978E+03 0.  0.
         24    2    5    5    0    0 -0.82711024175E+02  0.89280161826E+02  0.24475924063E+03  0.28716318956E+03  0.87997447376E+02 0.  0.
          2    1    6    6  501    0  0.15728290605E+02  0.21505843445E-01  0.40898434888E+02  0.43818507096E+02  0.00000000000E+00 0. -1.
         -1    1    6    6    0  501 -0.98439314780E+02  0.89258655983E+02  0.20386080575E+03  0.24334468246E+03  0.00000000000E+00 0.  1.
          5    1    5    5  502    0 -0.14300690073E+02  0.18506124619E+03  0.22672042651E+03  0.29304678189E+03  0.47000000000E+01 0. -1.
         11    1    4    4    0    0  0.43324125296E+02 -0.55655514687E+02  0.20080423432E+03  0.21283058208E+03  0.00000000000E+00 0. -1.
        -12    1    4    4    0    0 -0.20100789804E+02 -0.51233562741E+02  0.62081029288E+02  0.82963690246E+02  0.00000000000E+00 0.  1.
         -5    1    3    3    0  504  0.73788378757E+02 -0.16745233059E+03  0.13806428540E+03  0.22927896712E+03  0.47000000000E+01 0.  1.
<mgrwt>
<rscale>  2 0.33881171E+03</rscale>
<asrwt>0</asrwt>
<pdfrwt beam="1">  1       21 0.15213172E+00 0.33903004E+03</pdfrwt>
<pdfrwt beam="2">  1       21 0.17911846E-01 0.33903004E+03</pdfrwt>
<totfact> 0.74694518E+03</totfact>
</mgrwt>
</event>
<event>
12    1  0.2791583E-001  0.2731776E+03  0.7546771E-02  0.1099528E+00
         21   -1    0    0  502  503  0.00000000000E+00  0.00000000000E+00  0.65485732777E+03  0.65485732777E+03  0.00000000000E+00 0. -1.
         21   -1    0    0  503  504 -0.00000000000E+00 -0.00000000000E+00 -0.19297104721E+03  0.19297104721E+03  0.00000000000E+00 0. -1.
         -6    2    1    2    0  504  0.62913511698E+02  0.20255730829E+03 -0.40491028638E+02  0.27616209727E+03  0.17215808861E+03 0.  0.
        -24    2    3    3    0    0  0.92200899987E+02  0.19155227987E+03 -0.64670193213E+02  0.23634270799E+03  0.80513103582E+02 0.  0.
          6    2    1    2  502    0 -0.62913511698E+02 -0.20255730829E+03  0.50237730920E+03  0.57166627771E+03  0.17155698523E+03 0.  0.
         24    2    5    5    0    0 -0.51489878549E+02 -0.22089533179E+03  0.42526508905E+03  0.49144678509E+03  0.96039530465E+02 0.  0.
          2    1    6    6  501    0 -0.54185400963E+00 -0.68628682506E+02  0.22228300630E+03  0.23263689423E+03  0.00000000000E+00 0. -1.
         -1    1    6    6    0  501 -0.50948024539E+02 -0.15226664928E+03  0.20298208275E+03  0.25880989086E+03  0.00000000000E+00 0.  1.
          5    1    5    5  502    0 -0.11423633150E+02  0.18338023500E+02  0.77112220153E+02  0.80219492626E+02  0.47000000000E+01 0. -1.
         13    1    4    4    0    0  0.86417655975E+02  0.13684954558E+03 -0.15551435088E+02  0.16259660674E+03  0.00000000000E+00 0. -1.
        -14    1    4    4    0    0  0.57832440114E+01  0.54702734290E+02 -0.49118758125E+02  0.73746101252E+02  0.00000000000E+00 0.  1.
         -5    1    3    3    0  504 -0.29287388288E+02  0.11005028421E+02  0.24179164575E+02  0.39819389282E+02  0.47000000000E+01 0.  1.
<mgrwt>
<rscale>  2 0.27308291E+03</rscale>
<asrwt>0</asrwt>
<pdfrwt beam="1">  1       21 0.10074728E+00 0.27317756E+03</pdfrwt>
<pdfrwt beam="2">  1       21 0.29687854E-01 0.27317756E+03</pdfrwt>
<totfact> 0.83399534E+03</totfact>
</mgrwt>
</event>
<event>
12    1  0.2791583E-001  0.2278469E+03  0.7546771E-02  0.1128502E+00
         21   -1    0    0  502  503  0.00000000000E+00  0.00000000000E+00  0.44068804187E+03  0.44068804187E+03  0.00000000000E+00 0.  1.
         21   -1    0    0  503  504 -0.00000000000E+00 -0.00000000000E+00 -0.12968480244E+03  0.12968480244E+03  0.00000000000E+00 0.  1.
         -6    2    1    2    0  504 -0.14434817806E+03 -0.21473398298E+02  0.66294318161E+02  0.23729544587E+03  0.17497625171E+03 0.  0.
        -24    2    3    3    0    0 -0.23384180579E+01 -0.70514024717E+01  0.40066585115E+02  0.92089557967E+02  0.82583079186E+02 0.  0.
          6    2    1    2  502    0  0.14434817806E+03  0.21473398298E+02  0.24470892127E+03  0.33307739845E+03  0.17251259044E+03 0.  0.
         24    2    5    5    0    0  0.15103705644E+03 -0.26197812461E+02  0.15896254404E+03  0.23463037392E+03  0.79270449492E+02 0.  0.
          2    1    6    6  501    0  0.98331197967E+02 -0.48136652367E+02  0.73542098977E+02  0.13188859737E+03  0.00000000000E+00 0. -1.
         -1    1    6    6    0  501  0.52705858477E+02  0.21938839906E+02  0.85420445064E+02  0.10274177655E+03  0.00000000000E+00 0.  1.
          5    1    5    5  502    0 -0.66888783826E+01  0.47671210759E+02  0.85746377229E+02  0.98447024521E+02  0.47000000000E+01 0. -1.
         13    1    4    4    0    0 -0.11146578222E+02 -0.42599171521E+02  0.32410221347E+02  0.54675022342E+02  0.00000000000E+00 0. -1.
        -14    1    4    4    0    0  0.88081601639E+01  0.35547769049E+02  0.76563637685E+01  0.37414535625E+02  0.00000000000E+00 0.  1.
         -5    1    3    3    0  504 -0.14200976000E+03 -0.14421995826E+02  0.26227733046E+02  0.14520588790E+03  0.47000000000E+01 0.  1.
<mgrwt>
<rscale>  2 0.22737377E+03</rscale>
<asrwt>0</asrwt>
<pdfrwt beam="1">  1       21 0.67798159E-01 0.22784686E+03</pdfrwt>
<pdfrwt beam="2">  1       21 0.19951508E-01 0.22784686E+03</pdfrwt>
<totfact> 0.45315836E+04</totfact>
</mgrwt>
</event>
<event>
12    1  0.2791583E-001  0.1788889E+03  0.7546771E-02  0.1169088E+00
         21   -1    0    0  502  503  0.00000000000E+00  0.00000000000E+00  0.43194666661E+03  0.43194666661E+03  0.00000000000E+00 0.  1.
         21   -1    0    0  503  504 -0.00000000000E+00 -0.00000000000E+00 -0.15658431611E+03  0.15658431611E+03  0.00000000000E+00 0.  1.
         -6    2    1    2    0  504  0.40199498980E+02  0.74040464385E+01  0.35187665723E+03  0.39473841154E+03  0.17415628619E+03 0.  0.
        -24    2    3    3    0    0  0.66836502487E+01  0.68899613407E+02  0.17482798017E+03  0.20428279750E+03  0.79842412248E+02 0.  0.
          6    2    1    2  502    0 -0.40199498980E+02 -0.74040464385E+01 -0.76514306726E+02  0.19379257118E+03  0.17329253270E+03 0.  0.
         24    2    5    5    0    0 -0.31541040996E+02  0.24391380737E+02 -0.11312729929E+03  0.14431005600E+03  0.80236087255E+02 0.  0.
          2    1    6    6  501    0 -0.66170167427E+01 -0.25900068926E+02 -0.13471172515E+02  0.29934444540E+02  0.00000000000E+00 0. -1.
         -1    1    6    6    0  501 -0.24924024254E+02  0.50291449664E+02 -0.99656126774E+02  0.11437561146E+03  0.00000000000E+00 0.  1.
          5    1    5    5  502    0 -0.86584579832E+01 -0.31795427176E+02  0.36612992563E+02  0.49482515178E+02  0.47000000000E+01 0. -1.
         11    1    4    4    0    0  0.30039706419E+02  0.73463297032E+02  0.15110307939E+03  0.17067917440E+03  0.00000000000E+00 0. -1.
        -12    1    4    4    0    0 -0.23356056170E+02 -0.45636836250E+01  0.23724900778E+02  0.33603623093E+02  0.00000000000E+00 0.  1.
         -5    1    3    3    0  504  0.33515848731E+02 -0.61495566968E+02  0.17704867706E+03  0.19045561404E+03  0.47000000000E+01 0.  1.
<mgrwt>
<rscale>  2 0.17867831E+03</rscale>
<asrwt>0</asrwt>
<pdfrwt beam="1">  1       21 0.66453333E-01 0.17888888E+03</pdfrwt>
<pdfrwt beam="2">  1       21 0.24089895E-01 0.17888888E+03</pdfrwt>
<totfact> 0.34008469E+04</totfact>
</mgrwt>
</event>
<event>
12    1  0.2791583E-001  0.1970530E+03  0.7546771E-02  0.1152524E+00
         21   -1    0    0  502  503  0.00000000000E+00  0.00000000000E+00  0.47499170893E+02  0.47499170893E+02  0.00000000000E+00 0. -1.
         21   -1    0    0  503  504 -0.00000000000E+00 -0.00000000000E+00 -0.84256554074E+03  0.84256554074E+03  0.00000000000E+00 0. -1.
         -6    2    1    2    0  504  0.53820470093E+01 -0.94609344536E+02 -0.48075991723E+03  0.51909510413E+03  0.17131764245E+03 0.  0.
        -24    2    3    3    0    0  0.23188227194E+02 -0.30633419897E+01 -0.33890907657E+03  0.34926730420E+03  0.81124655028E+02 0.  0.
          6    2    1    2  502    0 -0.53820470093E+01  0.94609344536E+02 -0.31430645261E+03  0.37096960750E+03  0.17277155156E+03 0.  0.
         24    2    5    5    0    0 -0.38360767724E+02  0.22175313312E+02 -0.72715815029E+02  0.11656361097E+03  0.79600204944E+02 0.  0.
          4    1    6    6  501    0  0.37276882540E+01  0.32881348899E+02 -0.14696764422E+01  0.33124593793E+02  0.00000000000E+00 0. -1.
         -3    1    6    6    0  501 -0.42088455978E+02 -0.10706035587E+02 -0.71246138587E+02  0.83439017181E+02  0.00000000000E+00 0.  1.
          5    1    5    5  502    0  0.32978720715E+02  0.72434031224E+02 -0.24159063758E+03  0.25440599652E+03  0.47000000000E+01 0. -1.
         13    1    4    4    0    0 -0.29416478375E+02 -0.80679648322E+01 -0.98291873304E+02  0.10291605129E+03  0.00000000000E+00 0. -1.
        -14    1    4    4    0    0  0.52604705569E+02  0.50046228425E+01 -0.24061720327E+03  0.24635125290E+03  0.00000000000E+00 0.  1.
         -5    1    3    3    0  504 -0.17806180185E+02 -0.91546002547E+02 -0.14185084066E+03  0.16982779994E+03  0.47000000000E+01 0.  1.
<mgrwt>
<rscale>  2 0.19673390E+03</rscale>
<asrwt>0</asrwt>
<pdfrwt beam="1">  1       21 0.73075654E-02 0.19705305E+03</pdfrwt>
<pdfrwt beam="2">  1       21 0.12962546E+00 0.19705305E+03</pdfrwt>
<totfact> 0.61003776E+04</totfact>
</mgrwt>
</event>
<event>
12    1  0.2791583E-001  0.2422692E+03  0.7546771E-02  0.1118483E+00
         21   -1    0    0  502  503  0.00000000000E+00  0.00000000000E+00  0.95568461357E+03  0.95568461357E+03  0.00000000000E+00 0. -1.
         21   -1    0    0  503  504 -0.00000000000E+00 -0.00000000000E+00 -0.11077443625E+03  0.11077443625E+03  0.00000000000E+00 0. -1.
         -6    2    1    2    0  504  0.13981081202E+03  0.94847195887E+02  0.66014741307E+02  0.25110217751E+03  0.17364130774E+03 0.  0.
        -24    2    3    3    0    0  0.72076840664E+02  0.12091805585E+03  0.16728023335E+02  0.16324518471E+03  0.80950085705E+02 0.  0.
          6    2    1    2  502    0 -0.13981081202E+03 -0.94847195887E+02  0.77889543601E+03  0.81535687232E+03  0.17200486991E+03 0.  0.
         24    2    5    5    0    0 -0.16242657741E+02  0.42590361267E+01  0.30288513033E+03  0.31366071418E+03  0.79760128671E+02 0.  0.
          2    1    6    6  501    0 -0.45871853183E+02  0.39782534411E+01  0.23682805617E+03  0.24126247451E+03  0.00000000000E+00 0. -1.
         -1    1    6    6    0  501  0.29629195442E+02  0.28078268561E+00  0.66057074159E+02  0.72398239674E+02  0.00000000000E+00 0.  1.
          5    1    5    5  502    0 -0.12356815428E+03 -0.99106232013E+02  0.47601030568E+03  0.50169615813E+03  0.47000000000E+01 0. -1.
         13    1    4    4    0    0  0.61990821929E+02  0.69636641315E+02 -0.24820020905E+02  0.96478791736E+02  0.00000000000E+00 0. -1.
        -14    1    4    4    0    0  0.10086018735E+02  0.51281414531E+02  0.41548044240E+02  0.66766392972E+02  0.00000000000E+00 0.  1.
         -5    1    3    3    0  504  0.67733971359E+02 -0.26070859960E+02  0.49286717972E+02  0.87856992798E+02  0.47000000000E+01 0.  1.
<mgrwt>
<rscale>  2 0.24197611E+03</rscale>
<asrwt>0</asrwt>
<pdfrwt beam="1">  1       21 0.14702840E+00 0.24226918E+03</pdfrwt>
<pdfrwt beam="2">  1       21 0.17042222E-01 0.24226918E+03</pdfrwt>
<totfact> 0.94498433E+03</totfact>
</mgrwt>
</event>
<event>
12    1  0.2791583E-001  0.1878193E+03  0.7546771E-02  0.1160780E+00
         21   -1    0    0  502  503  0.00000000000E+00  0.00000000000E+00  0.12127424223E+03  0.12127424223E+03  0.00000000000E+00 0.  1.
         21   -1    0    0  503  504 -0.00000000000E+00 -0.00000000000E+00 -0.29061653445E+03  0.29061653445E+03  0.00000000000E+00 0.  1.
         -6    2    1    2    0  504  0.64260977093E+02  0.33501832853E+02 -0.67903898080E+02  0.19971737900E+03  0.17327505914E+03 0.  0.
        -24    2    3    3    0    0  0.74295366500E+02  0.40774409699E+02 -0.10755249823E+03  0.15791210614E+03  0.78653286139E+02 0.  0.
          6    2    1    2  502    0 -0.64260977093E+02 -0.33501832853E+02 -0.10143839414E+03  0.21217339768E+03  0.17168563392E+03 0.  0.
         24    2    5    5    0    0 -0.10472492970E+03 -0.29757811299E+02 -0.10470104162E+03  0.17113580483E+03  0.80450713770E+02 0.  0.
          4    1    6    6  501    0 -0.68133711678E+02  0.20854907326E+02 -0.42372863134E+02  0.82901081759E+02  0.00000000000E+00 0. -1.
         -3    1    6    6    0  501 -0.36591218021E+02 -0.50612718625E+02 -0.62328178483E+02  0.88234723074E+02  0.00000000000E+00 0.  1.
          5    1    5    5  502    0  0.40463952606E+02 -0.37440215534E+01  0.32626474792E+01  0.41037592844E+02  0.47000000000E+01 0. -1.
         11    1    4    4    0    0 -0.11395807938E+02  0.37266322041E+01 -0.42415180234E+02  0.44077202049E+02  0.00000000000E+00 0. -1.
        -12    1    4    4    0    0  0.85691174438E+02  0.37047777495E+02 -0.65137317999E+02  0.11383490409E+03  0.00000000000E+00 0.  1.
         -5    1    3    3    0  504 -0.10034389407E+02 -0.72725768460E+01  0.39648600153E+02  0.41805272859E+02  0.47000000000E+01 0.  1.
<mgrwt>
<rscale>  2 0.18745190E+03</rscale>
<asrwt>0</asrwt>
<pdfrwt beam="1">  1       21 0.18657576E-01 0.18781931E+03</pdfrwt>
<pdfrwt beam="2">  1       21 0.44710236E-01 0.18781931E+03</pdfrwt>
<totfact> 0.12636206E+05</totfact>
</mgrwt>
</event>
<event>
12    1  0.2791583E-001  0.2126721E+03  0.7546771E-02  0.1139818E+00
         21   -1    0    0  502  503  0.00000000000E+00  0.00000000000E+00  0.51581457645E+03  0.51581457645E+03  0.00000000000E+00 0. -1.
         21   -1    0    0  503  504 -0.00000000000E+00 -0.00000000000E+00 -0.10916368268E+03  0.10916368268E+03  0.00000000000E+00 0.  1.
         -6    2    1    2    0  504  0.12979580297E+02  0.12328524185E+03  0.63043474375E+02  0.22181956316E+03  0.17280543561E+03 0.  0.
        -24    2    3    3    0    0  0.15164451165E+02  0.62773921819E+02 -0.37148267274E+02  0.10465784327E+03  0.73503364256E+02 0.  0.
          6    2    1    2  502    0 -0.12979580297E+02 -0.12328524185E+03  0.34360741939E+03  0.40315869597E+03  0.17059646863E+03 0.  0.
         24    2    5    5    0    0 -0.21589736202E+02 -0.14312666824E+03  0.34351423864E+03  0.38102465728E+03  0.78907524603E+02 0.  0.
          4    1    6    6  501    0  0.16080565785E+01 -0.13896002768E+03  0.31303382486E+03  0.34249474542E+03  0.00000000000E+00 0. -1.
         -3    1    6    6    0  501 -0.23197792780E+02 -0.41666405578E+01  0.30480413781E+02  0.38529911857E+02  0.00000000000E+00 0.  1.
          5    1    5    5  502    0  0.86101559054E+01  0.19841426389E+02  0.93180753903E-01  0.22134038685E+02  0.47000000000E+01 0. -1.
         11    1    4    4    0    0 -0.17712579622E+02  0.20692223115E+02  0.14075897340E+02  0.30659981413E+02  0.00000000000E+00 0. -1.
        -12    1    4    4    0    0  0.32877030787E+02  0.42081698703E+02 -0.51224164614E+02  0.73997861858E+02  0.00000000000E+00 0.  1.
         -5    1    3    3    0  504 -0.21848708683E+01  0.60511320028E+02  0.10019174165E+03  0.11716171989E+03  0.47000000000E+01 0.  1.
<mgrwt>
<rscale>  2 0.21222298E+03</rscale>
<asrwt>0</asrwt>
<pdfrwt beam="1">  1       21 0.79356087E-01 0.21267214E+03</pdfrwt>
<pdfrwt beam="2">  1       21 0.16794413E-01 0.21267214E+03</pdfrwt>
<totfact> 0.44235339E+04</totfact>
</mgrwt>
</event>
<event>
12    1  0.2791583E-001  0.1751779E+03  0.7546771E-02  0.1172706E+00
         21   -1    0    0  502  503  0.00000000000E+00  0.00000000000E+00  0.57266031514E+02  0.57266031514E+02  0.00000000000E+00 0. -1.
         21   -1    0    0  503  504 -0.00000000000E+00 -0.00000000000E+00 -0.57584209366E+03  0.57584209366E+03  0.00000000000E+00 0. -1.
         -6    2    1    2    0  504 -0.53245258658E+01  0.15466069084E+02 -0.34418252085E+03  0.38592315680E+03  0.17380312260E+03 0.  0.
        -24    2    3    3    0    0 -0.70183288776E+02 -0.25091336910E+01 -0.21205205906E+03  0.23756441599E+03  0.80862761630E+02 0.  0.
          6    2    1    2  502    0  0.53245258658E+01 -0.15466069084E+02 -0.17439354130E+03  0.24718496838E+03  0.17441258979E+03 0.  0.
         24    2    5    5    0    0 -0.57858833727E+02  0.20020458722E+02 -0.89238385876E+02  0.13527017454E+03  0.81154588276E+02 0.  0.
          2    1    6    6  501    0 -0.17395417832E+02  0.44427713733E+02 -0.20672497878E+02  0.51997831471E+02  0.00000000000E+00 0. -1.
         -1    1    6    6    0  501 -0.40463415895E+02 -0.24407255012E+02 -0.68565887997E+02  0.83272343067E+02  0.00000000000E+00 0.  1.
          5    1    5    5  502    0  0.63183359593E+02 -0.35486527806E+02 -0.85155155422E+02  0.11191479384E+03  0.47000000000E+01 0. -1.
         11    1    4    4    0    0 -0.56156236738E+02 -0.35149421968E+02 -0.17036304196E+03  0.18279105792E+03  0.00000000000E+00 0. -1.
        -12    1    4    4    0    0 -0.14027052037E+02  0.32640288277E+02 -0.41689017099E+02  0.54773358071E+02  0.00000000000E+00 0.  1.
         -5    1    3    3    0  504  0.64858762910E+02  0.17975202775E+02 -0.13213046179E+03  0.14835874080E+03  0.47000000000E+01 0.  1.
<mgrwt>
<rscale>  2 0.17502602E+03</rscale>
<asrwt>0</asrwt>
<pdfrwt beam="1">  1       21 0.88101587E-02 0.17517791E+03</pdfrwt>
<pdfrwt beam="2">  1       21 0.88591091E-01 0.17517791E+03</pdfrwt>
<totfact> 0.11124404E+05</totfact>
</mgrwt>
</event>
<event>
12    1  0.2791583E-001  0.2798740E+03  0.7546771E-02  0.1096302E+00
         21   -1    0    0  502  503  0.00000000000E+00  0.00000000000E+00  0.34910247142E+03  0.34910247142E+03  0.00000000000E+00 0. -1.
         21   -1    0    0  503  504 -0.00000000000E+00 -0.00000000000E+00 -0.22577892026E+03  0.22577892026E+03  0.00000000000E+00 0.  1.
         -6    2    1    2    0  504  0.22166169034E+03 -0.22171058569E+02  0.10295245398E+03  0.29820906258E+03  0.16942247909E+03 0.  0.
        -24    2    3    3    0    0  0.98845477750E+02 -0.69398624609E+02  0.89441305125E+02  0.16585005755E+03  0.70141977144E+02 0.  0.
          6    2    1    2  502    0 -0.22166169034E+03  0.22171058569E+02  0.20371097183E+02  0.27667232910E+03  0.16281012035E+03 0.  0.
         24    2    5    5    0    0 -0.90424975036E+02 -0.27771740291E+02 -0.30571947369E+02  0.12722453759E+03  0.79394542186E+02 0.  0.
          4    1    6    6  501    0 -0.56982816631E+02 -0.51256453837E+02 -0.77071117391E+00  0.76647631711E+02  0.00000000000E+00 0. -1.
         -3    1    6    6    0  501 -0.33442158405E+02  0.23484713546E+02 -0.29801236195E+02  0.50576905875E+02  0.00000000000E+00 0.  1.
          5    1    5    5  502    0 -0.13123671530E+03  0.49942798860E+02  0.50943044552E+02  0.14944779152E+03  0.47000000000E+01 0. -1.
         13    1    4    4    0    0  0.62410961859E+02 -0.24752308725E+01  0.50245642038E+02  0.80161583516E+02  0.00000000000E+00 0. -1.
        -14    1    4    4    0    0  0.36434515891E+02 -0.66923393737E+02  0.39195663088E+02  0.85688474034E+02  0.00000000000E+00 0.  1.
         -5    1    3    3    0  504  0.12281621259E+03  0.47227566041E+02  0.13511148851E+02  0.13235900503E+03  0.47000000000E+01 0.  1.
<mgrwt>
<rscale>  2 0.27888054E+03</rscale>
<asrwt>0</asrwt>
<pdfrwt beam="1">  1       21 0.53708072E-01 0.27987397E+03</pdfrwt>
<pdfrwt beam="2">  1       21 0.34735219E-01 0.27987397E+03</pdfrwt>
<totfact> 0.25105941E+04</totfact>
</mgrwt>
</event>
<event>
12    1  0.2791583E-001  0.2650609E+03  0.7546771E-02  0.1104307E+00
         21   -1    0    0  502  503  0.00000000000E+00  0.00000000000E+00  0.21827812246E+03  0.21827812246E+03  0.00000000000E+00 0.  1.
         21   -1    0    0  503  504 -0.00000000000E+00 -0.00000000000E+00 -0.54080327704E+03  0.54080327704E+03  0.00000000000E+00 0. -1.
         -6    2    1    2    0  504  0.19824593765E+03  0.27157184509E+02 -0.40330323944E+03  0.48198508935E+03  0.17209636529E+03 0.  0.
        -24    2    3    3    0    0  0.17121980151E+03 -0.38338751528E+01 -0.39752092111E+03  0.44019534158E+03  0.80113276016E+02 0.  0.
          6    2    1    2  502    0 -0.19824593765E+03 -0.27157184509E+02  0.80778084856E+02  0.27709631014E+03  0.17383412103E+03 0.  0.
         24    2    5    5    0    0 -0.18992924422E+03 -0.15230493818E+02  0.12658568026E+02  0.20728390499E+03  0.80630590794E+02 0.  0.
          4    1    6    6  501    0 -0.11399632014E+03 -0.13778360899E+02 -0.31972172941E+02  0.11919406058E+03  0.00000000000E+00 0. -1.
         -3    1    6    6    0  501 -0.75932924078E+02 -0.14521329191E+01  0.44630740967E+02  0.88089844411E+02  0.00000000000E+00 0.  1.
          5    1    5    5  502    0 -0.83166934391E+01 -0.11926690690E+02  0.68119516830E+02  0.69812405157E+02  0.47000000000E+01 0. -1.
         13    1    4    4    0    0  0.30772545078E+02  0.31518535864E+02 -0.10141363030E+03  0.11056713818E+03  0.00000000000E+00 0. -1.
        -14    1    4    4    0    0  0.14044725643E+03 -0.35352411017E+02 -0.29610729081E+03  0.32962820340E+03  0.00000000000E+00 0.  1.
         -5    1    3    3    0  504  0.27026136142E+02  0.30991059662E+02 -0.57823183260E+01  0.41789747773E+02  0.47000000000E+01 0.  1.
<mgrwt>
<rscale>  2 0.26477631E+03</rscale>
<asrwt>0</asrwt>
<pdfrwt beam="1">  1       21 0.33581250E-01 0.26506087E+03</pdfrwt>
<pdfrwt beam="2">  1       21 0.83200503E-01 0.26506087E+03</pdfrwt>
<totfact> 0.10285532E+04</totfact>
</mgrwt>
</event>
<event>
12    1  0.2791583E-001  0.3078241E+03  0.7546771E-02  0.1081508E+00
         21   -1    0    0  502  503  0.00000000000E+00  0.00000000000E+00  0.20869398449E+04  0.20869398449E+04  0.00000000000E+00 0.  1.
         21   -1    0    0  503  504 -0.00000000000E+00 -0.00000000000E+00 -0.69382027028E+02  0.69382027028E+02  0.00000000000E+00 0. -1.
         -6    2    1    2    0  504  0.55985715993E+02  0.24702875320E+03  0.37211163338E+03  0.48232998286E+03  0.17325570514E+03 0.  0.
        -24    2    3    3    0    0  0.16438370975E+02  0.33960040294E+02  0.83555821717E+02  0.12142997543E+03  0.79625116719E+02 0.  0.
          6    2    1    2  502    0 -0.55985715993E+02 -0.24702875320E+03  0.16454461845E+04  0.16739918891E+04  0.17492310690E+03 0.  0.
         24    2    5    5    0    0 -0.54966831672E+02 -0.26793948038E+03  0.15635557383E+04  0.15893371088E+04  0.80454838772E+02 0.  0.
          4    1    6    6  501    0  0.19764278362E+02 -0.87158954920E+02  0.46942012387E+03  0.47785203025E+03  0.00000000000E+00 0. -1.
         -3    1    6    6    0  501 -0.74731110034E+02 -0.18078052546E+03  0.10941356144E+04  0.11114850786E+04  0.00000000000E+00 0.  1.
          5    1    5    5  502    0 -0.10188843213E+01  0.20910727185E+02  0.81890446216E+02  0.84654780244E+02  0.47000000000E+01 0. -1.
         13    1    4    4    0    0  0.25055158863E+02  0.48294853044E+02  0.88590257284E+02  0.10396339501E+03  0.00000000000E+00 0. -1.
        -14    1    4    4    0    0 -0.86167878880E+01 -0.14334812750E+02 -0.50344355665E+01  0.17466580419E+02  0.00000000000E+00 0.  1.
         -5    1    3    3    0  504  0.39547345019E+02  0.21306871290E+03  0.28855581167E+03  0.36090000743E+03  0.47000000000E+01 0.  1.
<mgrwt>
<rscale>  2 0.30758775E+03</rscale>
<asrwt>0</asrwt>
<pdfrwt beam="1">  1       21 0.32106762E+00 0.30782414E+03</pdfrwt>
<pdfrwt beam="2">  1       21 0.10674160E-01 0.30782414E+03</pdfrwt>
<totfact> 0.16548651E+03</totfact>
</mgrwt>
</event>
<event>
12    1  0.2791583E-001  0.2196554E+03  0.7546771E-02  0.1134653E+00
         21   -1    0    0  502  503  0.00000000000E+00  0.00000000000E+00  0.13450628579E+04  0.13450628579E+04  0.00000000000E+00 0.  1.
         21   -1    0    0  503  504 -0.00000000000E+00 -0.00000000000E+00 -0.48426191178E+02  0.48426191178E+02  0.00000000000E+00 0.  1.
         -6    2    1    2    0  504  0.10721650675E+03  0.76992302974E+02  0.29029655394E+03  0.36403375829E+03  0.17557133567E+03 0.  0.
        -24    2    3    3    0    0  0.81202354497E+02  0.12834472651E+02  0.26678001765E+03  0.29076657063E+03  0.81333109560E+02 0.  0.
          6    2    1    2  502    0 -0.10721650675E+03 -0.76992302974E+02  0.10063401128E+04  0.10294552908E+04  0.17214696946E+03 0.  0.
         24    2    5    5    0    0 -0.13288653692E+03 -0.27259122570E+02  0.82424943700E+03  0.83889967190E+03  0.77224566460E+02 0.  0.
          2    1    6    6  501    0 -0.28515398995E+02  0.96197282737E+01  0.65066039028E+02  0.71688608487E+02  0.00000000000E+00 0. -1.
         -1    1    6    6    0  501 -0.10437113792E+03 -0.36878850844E+02  0.75918339797E+03  0.76721106341E+03  0.00000000000E+00 0.  1.
          5    1    5    5  502    0  0.25670030163E+02 -0.49733180404E+02  0.18209067582E+03  0.19055561892E+03  0.47000000000E+01 0. -1.
         11    1    4    4    0    0  0.31527536917E+01  0.22636119685E+01 -0.58315978249E+01  0.70050930169E+01  0.00000000000E+00 0. -1.
        -12    1    4    4    0    0  0.78049600805E+02  0.10570860683E+02  0.27261161548E+03  0.28376147761E+03  0.00000000000E+00 0.  1.
         -5    1    3    3    0  504  0.26014152258E+02  0.64157830323E+02  0.23516536284E+02  0.73267187664E+02  0.47000000000E+01 0.  1.
<mgrwt>
<rscale>  2 0.21897035E+03</rscale>
<asrwt>0</asrwt>
<pdfrwt beam="1">  1       21 0.20693272E+00 0.21965538E+03</pdfrwt>
<pdfrwt beam="2">  1       21 0.74501843E-02 0.21965538E+03</pdfrwt>
<totfact> 0.16134305E+04</totfact>
</mgrwt>
</event>
<event>
12    1  0.2791583E-001  0.1802268E+03  0.7546771E-02  0.1167933E+00
         21   -1    0    0  502  503  0.00000000000E+00  0.00000000000E+00  0.14362578784E+02  0.14362578784E+02  0.00000000000E+00 0. -1.
         21   -1    0    0  503  504 -0.00000000000E+00 -0.00000000000E+00 -0.23861587083E+04  0.23861587083E+04  0.00000000000E+00 0. -1.
         -6    2    1    2    0  504  0.36161277889E+02 -0.28136694174E+02 -0.14748920156E+04  0.14856886839E+04  0.17281520850E+03 0.  0.
        -24    2    3    3    0    0  0.58400990578E+01 -0.82594648640E+02 -0.81835966744E+03  0.82618746568E+03  0.77570615633E+02 0.  0.
          6    2    1    2  502    0 -0.36161277889E+02  0.28136694174E+02 -0.89690411390E+03  0.91483260315E+03  0.17430545219E+03 0.  0.
         24    2    5    5    0    0 -0.64228854776E+02  0.42651684400E+02 -0.33758224135E+03  0.35459915097E+03  0.76382434042E+02 0.  0.
          2    1    6    6  501    0 -0.54412938066E+02  0.61294259683E+02 -0.21257078256E+03  0.22782469510E+03  0.00000000000E+00 0. -1.
         -1    1    6    6    0  501 -0.98159167100E+01 -0.18642575283E+02 -0.12501145879E+03  0.12677445588E+03  0.00000000000E+00 0.  1.
          5    1    5    5  502    0  0.28067576886E+02 -0.14514990226E+02 -0.55932187256E+03  0.56023345217E+03  0.47000000000E+01 0. -1.
         11    1    4    4    0    0  0.38407385998E+02 -0.47706407792E+02 -0.34179178744E+03  0.34723573348E+03  0.00000000000E+00 0. -1.
        -12    1    4    4    0    0 -0.32567286940E+02 -0.34888240848E+02 -0.47656788000E+03  0.47895173220E+03  0.00000000000E+00 0.  1.
         -5    1    3    3    0  504  0.30321178832E+02  0.54457954466E+02 -0.65653234816E+03  0.65950121825E+03  0.47000000000E+01 0.  1.
<mgrwt>
<rscale>  2 0.17986550E+03</rscale>
<asrwt>0</asrwt>
<pdfrwt beam="1">  1       21 0.22096284E-02 0.18022681E+03</pdfrwt>
<pdfrwt beam="2">  1       21 0.36710119E+00 0.18022681E+03</pdfrwt>
<totfact> 0.14697534E+04</totfact>
</mgrwt>
</event>
<event>
12    1  0.2791583E-001  0.1876902E+03  0.7546771E-02  0.1161467E+00
         21   -1    0    0  502  503  0.00000000000E+00  0.00000000000E+00  0.58356090947E+02  0.58356090947E+02  0.00000000000E+00 0.  1.
         21   -1    0    0  503  504 -0.00000000000E+00 -0.00000000000E+00 -0.63498023512E+03  0.63498023512E+03  0.00000000000E+00 0.  1.
         -6    2    1    2    0  504  0.60347289899E+02 -0.41137824351E+02 -0.37655322297E+03  0.41900811445E+03  0.16864564701E+03 0.  0.
        -24    2    3    3    0    0  0.75947037474E+02 -0.80771424005E+02 -0.24425673127E+03  0.27994472580E+03  0.80098210321E+02 0.  0.
          6    2    1    2  502    0 -0.60347289899E+02  0.41137824351E+02 -0.20007092121E+03  0.27432821163E+03  0.17289730533E+03 0.  0.
         24    2    5    5    0    0 -0.10143237504E+03  0.58766030569E+02 -0.15788025273E+03  0.21267693117E+03  0.81014380166E+02 0.  0.
          4    1    6    6  501    0 -0.51516692826E+01  0.14378337772E+02 -0.79178818048E+02  0.80638461797E+02  0.00000000000E+00 0. -1.
         -3    1    6    6    0  501 -0.96280705756E+02  0.44387692797E+02 -0.78701434685E+02  0.13203846937E+03  0.00000000000E+00 0.  1.
          5    1    5    5  502    0  0.41085085139E+02 -0.17628206218E+02 -0.42190668478E+02  0.61651280457E+02  0.47000000000E+01 0. -1.
         13    1    4    4    0    0 -0.18270189721E+01  0.10553423107E+02 -0.40471990440E+01  0.11449565830E+02  0.00000000000E+00 0. -1.
        -14    1    4    4    0    0  0.77774056446E+02 -0.91324847112E+02 -0.24020953223E+03  0.26849515997E+03  0.00000000000E+00 0.  1.
         -5    1    3    3    0  504 -0.15599747575E+02  0.39633599655E+02 -0.13229649170E+03  0.13906338864E+03  0.47000000000E+01 0.  1.
<mgrwt>
<rscale>  2 0.18670515E+03</rscale>
<asrwt>0</asrwt>
<pdfrwt beam="1">  1       21 0.89778600E-02 0.18769015E+03</pdfrwt>
<pdfrwt beam="2">  1       21 0.97689268E-01 0.18769015E+03</pdfrwt>
<totfact> 0.85294519E+04</totfact>
</mgrwt>
</event>
<event>
12    1  0.2791583E-001  0.2756537E+03  0.7546771E-02  0.1098743E+00
         21   -1    0    0  502  503  0.00000000000E+00  0.00000000000E+00  0.80728375297E+03  0.80728375297E+03  0.00000000000E+00 0. -1.
         21   -1    0    0  503  504 -0.00000000000E+00 -0.00000000000E+00 -0.10347264645E+03  0.10347264645E+03  0.00000000000E+00 0.  1.
         -6    2    1    2    0  504 -0.27516996885E+02 -0.21251462046E+03  0.20655734209E+03  0.34445737026E+03  0.17339346969E+03 0.  0.
        -24    2    3    3    0    0  0.60464784549E+01 -0.16526415215E+03  0.21614678752E+03  0.28552383909E+03  0.86345984554E+02 0.  0.
          6    2    1    2  502    0  0.27516996885E+02  0.21251462046E+03  0.49725376443E+03  0.56629902915E+03  0.16587234597E+03 0.  0.
         24    2    5    5    0    0  0.80456203624E+02  0.13897746381E+03  0.34566453154E+03  0.38963081315E+03  0.80871911345E+02 0.  0.
          2    1    6    6  501    0  0.19609163056E+02  0.61305572156E+02  0.22357584255E+03  0.23265650609E+03  0.00000000000E+00 0. -1.
         -1    1    6    6    0  501  0.60847040568E+02  0.77671891650E+02  0.12208868898E+03  0.15697430706E+03  0.00000000000E+00 0.  1.
          5    1    5    5  502    0 -0.52939206739E+02  0.73537156654E+02  0.15158923289E+03  0.17666821600E+03  0.47000000000E+01 0. -1.
         11    1    4    4    0    0 -0.40064290254E+02 -0.72462071209E+02  0.90667466016E+02  0.12278635311E+03  0.00000000000E+00 0. -1.
        -12    1    4    4    0    0  0.46110768709E+02 -0.92802080940E+02  0.12547932150E+03  0.16273748598E+03  0.00000000000E+00 0.  1.
         -5    1    3    3    0  504 -0.33563475340E+02 -0.47250468311E+02 -0.95894454290E+01  0.58933531170E+02  0.47000000000E+01 0.  1.
<mgrwt>
<rscale>  2 0.27447921E+03</rscale>
<asrwt>0</asrwt>
<pdfrwt beam="1">  1       21 0.12419750E+00 0.27565367E+03</pdfrwt>
<pdfrwt beam="2">  1       21 0.15918869E-01 0.27565367E+03</pdfrwt>
<totfact> 0.16267667E+04</totfact>
</mgrwt>
</event>
<event>
12    1  0.2791583E-001  0.1927985E+03  0.7546771E-02  0.1156544E+00
         21   -1    0    0  502  503  0.00000000000E+00  0.00000000000E+00  0.14203644274E+04  0.14203644274E+04  0.00000000000E+00 0. -1.
         21   -1    0    0  503  504 -0.00000000000E+00 -0.00000000000E+00 -0.28268269765E+02  0.28268269765E+02  0.00000000000E+00 0.  1.
         -6    2    1    2    0  504  0.18370621027E+02 -0.82613046021E+02  0.47838576847E+03  0.51480297288E+03  0.17031371737E+03 0.  0.
        -24    2    3    3    0    0  0.29626045019E+02 -0.71260787186E+02  0.48434749841E+03  0.49710578175E+03  0.81029974068E+02 0.  0.
          6    2    1    2  502    0 -0.18370621027E+02  0.82613046021E+02  0.91371038918E+03  0.93382972430E+03  0.17323072360E+03 0.  0.
         24    2    5    5    0    0  0.39782255760E+02  0.73179451735E+02  0.40414514013E+03  0.42084864977E+03  0.82718992362E+02 0.  0.
          2    1    6    6  501    0  0.61418169868E+01  0.81669349486E+02  0.30515494253E+03  0.31595433770E+03  0.00000000000E+00 0. -1.
         -1    1    6    6    0  501  0.33640438773E+02 -0.84898977518E+01  0.98990197594E+02  0.10489431207E+03  0.00000000000E+00 0.  1.
          5    1    5    5  502    0 -0.58152876787E+02  0.94335942863E+01  0.50956524905E+03  0.51298107452E+03  0.47000000000E+01 0. -1.
         11    1    4    4    0    0  0.19359053587E+02  0.15045761610E+02  0.88871843438E+02  0.92191932696E+02  0.00000000000E+00 0. -1.
        -12    1    4    4    0    0  0.10266991432E+02 -0.86306548796E+02  0.39547565497E+03  0.40491384905E+03  0.00000000000E+00 0.  1.
         -5    1    3    3    0  504 -0.11255423991E+02 -0.11352258835E+02 -0.59617299453E+01  0.17697191128E+02  0.47000000000E+01 0.  1.
<mgrwt>
<rscale>  2 0.19214103E+03</rscale>
<asrwt>0</asrwt>
<pdfrwt beam="1">  1       21 0.21851755E+00 0.19279854E+03</pdfrwt>
<pdfrwt beam="2">  1       21 0.43489657E-02 0.19279854E+03</pdfrwt>
<totfact> 0.34974876E+04</totfact>
</mgrwt>
</event>
<event>
12    1  0.2791583E-001  0.2431523E+03  0.7546771E-02  0.1117901E+00
         21   -1    0    0  502  503  0.00000000000E+00  0.00000000000E+00  0.56053457601E+03  0.56053457601E+03  0.00000000000E+00 0.  1.
         21   -1    0    0  503  504 -0.00000000000E+00 -0.00000000000E+00 -0.15124101977E+03  0.15124101977E+03  0.00000000000E+00 0.  1.
         -6    2    1    2    0  504 -0.37783261765E+02  0.16439344066E+03  0.81452654738E+01  0.24328866984E+03  0.17512924748E+03 0.  0.
        -24    2    3    3    0    0 -0.98512155992E+01  0.10109201421E+00  0.41769945120E+01  0.76525327947E+02  0.75773490522E+02 0.  0.
          6    2    1    2  502    0  0.37783261765E+02 -0.16439344066E+03  0.40114829077E+03  0.46848692594E+03  0.17351446738E+03 0.  0.
         24    2    5    5    0    0 -0.22203298582E+02 -0.19076051638E+02  0.13302296335E+03  0.15763517321E+03  0.79352736812E+02 0.  0.
          2    1    6    6  501    0 -0.32294409655E+02  0.18041493769E+02  0.29877281172E+02  0.47550776257E+02  0.00000000000E+00 0. -1.
         -1    1    6    6    0  501  0.10091111073E+02 -0.37117545407E+02  0.10314568218E+03  0.11008439695E+03  0.00000000000E+00 0.  1.
          5    1    5    5  502    0  0.59986560346E+02 -0.14531738902E+03  0.26812532741E+03  0.31085175273E+03  0.47000000000E+01 0. -1.
         11    1    4    4    0    0 -0.16736502185E+02 -0.10548515355E+01  0.38239317337E+02  0.41754863280E+02  0.00000000000E+00 0. -1.
        -12    1    4    4    0    0  0.68852865858E+01  0.11559435497E+01 -0.34062322825E+02  0.34770464666E+02  0.00000000000E+00 0.  1.
         -5    1    3    3    0  504 -0.27932046165E+02  0.16429234864E+03  0.39682709618E+01  0.16676334190E+03  0.47000000000E+01 0.  1.
<mgrwt>
<rscale>  2 0.24286165E+03</rscale>
<asrwt>0</asrwt>
<pdfrwt beam="1">  1       21 0.86236088E-01 0.24315228E+03</pdfrwt>
<pdfrwt beam="2">  1       21 0.23267849E-01 0.24315228E+03</pdfrwt>
<totfact> 0.19561193E+04</totfact>
</mgrwt>
</event>
<event>
12    1  0.2791583E-001  0.2179092E+03  0.7546771E-02  0.1135552E+00
         21   -1    0    0  502  503  0.00000000000E+00  0.00000000000E+00  0.43464297357E+03  0.43464297357E+03  0.00000000000E+00 0. -1.
         21   -1    0    0  503  504 -0.00000000000E+00 -0.00000000000E+00 -0.32896708386E+03  0.32896708386E+03  0.00000000000E+00 0.  1.
         -6    2    1    2    0  504 -0.16003337083E+02 -0.13055830279E+03 -0.25936135633E+03  0.33875173572E+03  0.17373211584E+03 0.  0.
        -24    2    3    3    0    0 -0.61273991402E+02 -0.13897313069E+03 -0.19870669767E+03  0.26245416638E+03  0.79560069609E+02 0.  0.
          6    2    1    2  502    0  0.16003337083E+02  0.13055830279E+03  0.36503724603E+03  0.42485832171E+03  0.17306306744E+03 0.  0.
         24    2    5    5    0    0  0.12652537529E+02  0.51939263776E+01  0.20885206494E+03  0.22450025344E+03  0.81204157438E+02 0.  0.
          4    1    6    6  501    0  0.46544468900E+02  0.91309618633E+01  0.13651253629E+03  0.14451793872E+03  0.00000000000E+00 0. -1.
         -3    1    6    6    0  501 -0.33891931372E+02 -0.39370354857E+01  0.72339528658E+02  0.79982314714E+02  0.00000000000E+00 0.  1.
          5    1    5    5  502    0  0.33507995546E+01  0.12536437641E+03  0.15618518108E+03  0.20035806827E+03  0.47000000000E+01 0. -1.
         13    1    4    4    0    0 -0.82142483043E+01 -0.43140775770E+02 -0.11242447532E+02  0.45332031013E+02  0.00000000000E+00 0. -1.
        -14    1    4    4    0    0 -0.53059743098E+02 -0.95832354917E+02 -0.18746425014E+03  0.21712213537E+03  0.00000000000E+00 0.  1.
         -5    1    3    3    0  504  0.45270654319E+02  0.84148278982E+01 -0.60654658652E+02  0.76297569340E+02  0.47000000000E+01 0.  1.
<mgrwt>
<rscale>  2 0.21777583E+03</rscale>
<asrwt>0</asrwt>
<pdfrwt beam="1">  1       21 0.66868150E-01 0.21790921E+03</pdfrwt>
<pdfrwt beam="2">  1       21 0.50610320E-01 0.21790921E+03</pdfrwt>
<totfact> 0.74772587E+03</totfact>
</mgrwt>
</event>
<event>
12    1  0.2791583E-001  0.2508165E+03  0.7546771E-02  0.1112890E+00
         21   -1    0    0  502  503  0.00000000000E+00  0.00000000000E+00  0.70301723741E+03  0.70301723741E+03  0.00000000000E+00 0. -1.
         21   -1    0    0  503  504 -0.00000000000E+00 -0.00000000000E+00 -0.89300844581E+02  0.89300844581E+02  0.00000000000E+00 0. -1.
         -6    2    1    2    0  504 -0.17933212840E+03 -0.21732727947E+02  0.31604443793E+03  0.40347617387E+03  0.17400175975E+03 0.  0.
        -24    2    3    3    0    0 -0.53083935661E+02 -0.49604041663E+02  0.20958282424E+03  0.23593041449E+03  0.80372477184E+02 0.  0.
          6    2    1    2  502    0  0.17933212840E+03  0.21732727947E+02  0.29767195491E+03  0.38884190813E+03  0.17308123248E+03 0.  0.
         24    2    5    5    0    0  0.12875002650E+03  0.73035033458E+02  0.25297960840E+03  0.30393035756E+03  0.80400836713E+02 0.  0.
          4    1    6    6  501    0  0.13072962597E+03  0.43658726752E+02  0.19356944239E+03  0.23762459585E+03  0.00000000000E+00 0. -1.
         -3    1    6    6    0  501 -0.19795994724E+01  0.29376306706E+02  0.59410166016E+02  0.66305761709E+02  0.00000000000E+00 0.  1.
          5    1    5    5  502    0  0.50582101900E+02 -0.51302305511E+02  0.44692346502E+02  0.84911550564E+02  0.47000000000E+01 0. -1.
         13    1    4    4    0    0 -0.39195530671E+02 -0.44793663131E+01  0.28173481655E+02  0.48477823958E+02  0.00000000000E+00 0. -1.
        -14    1    4    4    0    0 -0.13888404990E+02 -0.45124675350E+02  0.18140934259E+03  0.18745259053E+03  0.00000000000E+00 0.  1.
         -5    1    3    3    0  504 -0.12624819274E+03  0.27871313716E+02  0.10646161368E+03  0.16754575938E+03  0.47000000000E+01 0.  1.
<mgrwt>
<rscale>  2 0.25065695E+03</rscale>
<asrwt>0</asrwt>
<pdfrwt beam="1">  1       21 0.10815649E+00 0.25081654E+03</pdfrwt>
<pdfrwt beam="2">  1       21 0.13738592E-01 0.25081654E+03</pdfrwt>
<totfact> 0.30358734E+04</totfact>
</mgrwt>
</event>
<event>
12    1  0.2791583E-001  0.3987051E+03  0.7546771E-02  0.1044247E+00
         21   -1    0    0  502  503  0.00000000000E+00  0.00000000000E+00  0.30313680371E+03  0.30313680371E+03  0.00000000000E+00 0. -1.
         21   -1    0    0  503  504 -0.00000000000E+00 -0.00000000000E+00 -0.13456987669E+04  0.13456987669E+04  0.00000000000E+00 0.  1.
         -6    2    1    2    0  504 -0.35301704169E+03  0.68490663873E+02 -0.11653893207E+04  0.12316397463E+04  0.17173291217E+03 0.  0.
        -24    2    3    3    0    0 -0.33618793442E+03  0.98538133571E+02 -0.99723655172E+03  0.10599321081E+04  0.79014193513E+02 0.  0.
          6    2    1    2  502    0  0.35301704169E+03 -0.68490663873E+02  0.12282735749E+03  0.41719582433E+03  0.17220276807E+03 0.  0.
         24    2    5    5    0    0  0.32515581799E+03 -0.26362759004E+02  0.70995766339E+02  0.34467264185E+03  0.85659384596E+02 0.  0.
          2    1    6    6  501    0  0.31545679181E+03 -0.19077132607E+02  0.83881281132E+02  0.32697552479E+03  0.00000000000E+00 0. -1.
         -1    1    6    6    0  501  0.96990261777E+01 -0.72856263972E+01 -0.12885514793E+02  0.17697117061E+02  0.00000000000E+00 0.  1.
          5    1    5    5  502    0  0.27861223695E+02 -0.42127904870E+02  0.51831591155E+02  0.72523182474E+02  0.47000000000E+01 0. -1.
         11    1    4    4    0    0 -0.67929239803E+02  0.45907319255E+02 -0.17086855482E+03  0.18952025382E+03  0.00000000000E+00 0. -1.
        -12    1    4    4    0    0 -0.26825869462E+03  0.52630814316E+02 -0.82636799690E+03  0.87041185433E+03  0.00000000000E+00 0.  1.
         -5    1    3    3    0  504 -0.16829107268E+02 -0.30047469698E+02 -0.16815276901E+03  0.17170763819E+03  0.47000000000E+01 0.  1.
<mgrwt>
<rscale>  2 0.39865446E+03</rscale>
<asrwt>0</asrwt>
<pdfrwt beam="1">  1       21 0.46636431E-01 0.39870515E+03</pdfrwt>
<pdfrwt beam="2">  1       21 0.20703058E+00 0.39870515E+03</pdfrwt>
<totfact> 0.44924714E+02</totfact>
</mgrwt>
</event>
<event>
12    1  0.2791583E-001  0.2436424E+03  0.7546771E-02  0.1117552E+00
         21   -1    0    0  502  503  0.00000000000E+00  0.00000000000E+00  0.24950150149E+03  0.24950150149E+03  0.00000000000E+00 0.  1.
         21   -1    0    0  503  504 -0.00000000000E+00 -0.00000000000E+00 -0.30721386996E+03  0.30721386996E+03  0.00000000000E+00 0.  1.
         -6    2    1    2    0  504  0.95351321934E+02 -0.14062323577E+03 -0.16192651799E+03  0.29172067624E+03  0.17324545213E+03 0.  0.
        -24    2    3    3    0    0  0.73324261328E+02 -0.71962283671E+02 -0.19186687051E+02  0.13173234204E+03  0.80188923236E+02 0.  0.
          6    2    1    2  502    0 -0.95351321934E+02  0.14062323577E+03  0.10421414952E+03  0.26499469521E+03  0.17462769109E+03 0.  0.
         24    2    5    5    0    0 -0.93202764782E+02  0.13132110892E+03  0.13990700476E+03  0.22774934950E+03  0.79773474325E+02 0.  0.
          4    1    6    6  501    0 -0.27108476197E+02  0.93869020502E+02  0.10718448885E+03  0.14503371036E+03  0.00000000000E+00 0. -1.
         -3    1    6    6    0  501 -0.66094288585E+02  0.37452088415E+02  0.32722515913E+02  0.82715639138E+02  0.00000000000E+00 0.  1.
          5    1    5    5  502    0 -0.21485571524E+01  0.93021268511E+01 -0.35692855242E+02  0.37245345711E+02  0.47000000000E+01 0. -1.
         13    1    4    4    0    0 -0.74150837360E+00  0.12799713563E+02 -0.14096080415E+02  0.19054710311E+02  0.00000000000E+00 0. -1.
        -14    1    4    4    0    0  0.74065769702E+02 -0.84761997235E+02 -0.50906066350E+01  0.11267763173E+03  0.00000000000E+00 0.  1.
         -5    1    3    3    0  504  0.22027060606E+02 -0.68660952097E+02 -0.14273983094E+03  0.15998833419E+03  0.47000000000E+01 0.  1.
<mgrwt>
<rscale>  2 0.24339479E+03</rscale>
<asrwt>0</asrwt>
<pdfrwt beam="1">  1       21 0.38384846E-01 0.24364236E+03</pdfrwt>
<pdfrwt beam="2">  1       21 0.47263672E-01 0.24364236E+03</pdfrwt>
<totfact> 0.27300613E+04</totfact>
</mgrwt>
</event>
<event>
12    1  0.2791583E-001  0.2136598E+03  0.7546771E-02  0.1138798E+00
         21   -1    0    0  502  503  0.00000000000E+00  0.00000000000E+00  0.34673453428E+02  0.34673453428E+02  0.00000000000E+00 0. -1.
         21   -1    0    0  503  504 -0.00000000000E+00 -0.00000000000E+00 -0.21808139743E+04  0.21808139743E+04  0.00000000000E+00 0. -1.
         -6    2    1    2    0  504 -0.18302536726E+02 -0.12323540439E+03 -0.17724355967E+04  0.17852670581E+04  0.17357585224E+03 0.  0.
        -24    2    3    3    0    0 -0.58043416284E+02 -0.10326728242E+03 -0.86972881003E+03  0.88145308602E+03  0.80611227873E+02 0.  0.
          6    2    1    2  502    0  0.18302536726E+02  0.12323540439E+03 -0.37370492420E+03  0.43022036968E+03  0.17295157810E+03 0.  0.
         24    2    5    5    0    0 -0.84909173430E+01 -0.64028100606E+01 -0.13471132929E+03  0.15697325764E+03  0.79877216535E+02 0.  0.
          4    1    6    6  501    0  0.10142840342E+02  0.32922835544E+02 -0.40315338818E+02  0.53029396135E+02  0.00000000000E+00 0. -1.
         -3    1    6    6    0  501 -0.18633757685E+02 -0.39325645604E+02 -0.94395990468E+02  0.10394386150E+03  0.00000000000E+00 0.  1.
          5    1    5    5  502    0  0.26793454069E+02  0.12963821445E+03 -0.23899359492E+03  0.27324711204E+03  0.47000000000E+01 0. -1.
         13    1    4    4    0    0  0.55236649567E+00 -0.71078731975E+02 -0.56648653719E+03  0.57092861906E+03  0.00000000000E+00 0. -1.
        -14    1    4    4    0    0 -0.58595782780E+02 -0.32188550445E+02 -0.30324227284E+03  0.31052446695E+03  0.00000000000E+00 0.  1.
         -5    1    3    3    0  504  0.39740879559E+02 -0.19968121967E+02 -0.90270678665E+03  0.90381397205E+03  0.47000000000E+01 0.  1.
<mgrwt>
<rscale>  2 0.21353301E+03</rscale>
<asrwt>0</asrwt>
<pdfrwt beam="1">  1       21 0.53343755E-02 0.21365983E+03</pdfrwt>
<pdfrwt beam="2">  1       21 0.33550997E+00 0.21365983E+03</pdfrwt>
<totfact> 0.49996044E+03</totfact>
</mgrwt>
</event>
<event>
12    1  0.2791583E-001  0.2430254E+03  0.7546771E-02  0.1117978E+00
         21   -1    0    0  502  503  0.00000000000E+00  0.00000000000E+00  0.50470943537E+02  0.50470943537E+02  0.00000000000E+00 0.  1.
         21   -1    0    0  503  504 -0.00000000000E+00 -0.00000000000E+00 -0.18470748042E+04  0.18470748042E+04  0.00000000000E+00 0.  1.
         -6    2    1    2    0  504 -0.16883816352E+03  0.22188418860E+02 -0.14762333663E+04  0.14961037130E+04  0.17338603442E+03 0.  0.
        -24    2    3    3    0    0 -0.95371951872E+02 -0.29479412473E+02 -0.11670375769E+04  0.11740928821E+04  0.80947791326E+02 0.  0.
          6    2    1    2  502    0  0.16883816352E+03 -0.22188418860E+02 -0.32037049436E+03  0.40144203472E+03  0.17181327710E+03 0.  0.
         24    2    5    5    0    0  0.13696287527E+03 -0.20392259857E+01 -0.32595360448E+03  0.36303259456E+03  0.82364584589E+02 0.  0.
          4    1    6    6  501    0  0.30387535392E+02 -0.32119391147E+02 -0.56747970237E+02  0.71940181546E+02  0.00000000000E+00 0. -1.
         -3    1    6    6    0  501  0.10657533988E+03  0.30080165161E+02 -0.26920563424E+03  0.29109241301E+03  0.00000000000E+00 0.  1.
          5    1    5    5  502    0  0.31875288252E+02 -0.20149192874E+02  0.55831101198E+01  0.38409440158E+02  0.47000000000E+01 0. -1.
         11    1    4    4    0    0 -0.96543171416E+01  0.13953424527E+02 -0.47513254340E+02  0.50452088495E+02  0.00000000000E+00 0. -1.
        -12    1    4    4    0    0 -0.85717634730E+02 -0.43432837000E+02 -0.11195243226E+04  0.11236407936E+04  0.00000000000E+00 0.  1.
         -5    1    3    3    0  504 -0.73466211648E+02  0.51667831333E+02 -0.30919578936E+03  0.32201083088E+03  0.47000000000E+01 0.  1.
<mgrwt>
<rscale>  2 0.24274507E+03</rscale>
<asrwt>0</asrwt>
<pdfrwt beam="1">  1       21 0.77647602E-02 0.24302545E+03</pdfrwt>
<pdfrwt beam="2">  1       21 0.28416537E+00 0.24302545E+03</pdfrwt>
<totfact> 0.50592723E+03</totfact>
</mgrwt>
</event>
<event>
12    1  0.2791583E-001  0.2032729E+03  0.7546771E-02  0.1147494E+00
         21   -1    0    0  502  503  0.00000000000E+00  0.00000000000E+00  0.88851415543E+02  0.88851415543E+02  0.00000000000E+00 0. -1.
         21   -1    0    0  503  504 -0.00000000000E+00 -0.00000000000E+00 -0.61463322424E+03  0.61463322424E+03  0.00000000000E+00 0. -1.
         -6    2    1    2    0  504 -0.91559623155E+02 -0.43888063199E+02 -0.43835148288E+03  0.48220670032E+03  0.17338383029E+03 0.  0.
        -24    2    3    3    0    0 -0.10332800833E+03 -0.78264348610E+02 -0.40588046668E+03  0.43325079382E+03  0.78519497851E+02 0.  0.
          6    2    1    2  502    0  0.91559623155E+02  0.43888063199E+02 -0.87430325818E+02  0.22127793946E+03  0.17609809180E+03 0.  0.
         24    2    5    5    0    0  0.78422908359E+02  0.86437198074E+02 -0.10200609482E+03  0.17418712086E+03  0.79462997221E+02 0.  0.
          2    1    6    6  501    0  0.28756776835E+02  0.71271335248E+02 -0.24070829147E+02  0.80535459629E+02  0.00000000000E+00 0. -1.
         -1    1    6    6    0  501  0.49666131525E+02  0.15165862826E+02 -0.77935265676E+02  0.93651661234E+02  0.00000000000E+00 0.  1.
          5    1    5    5  502    0  0.13136714796E+02 -0.42549134875E+02  0.14575769006E+02  0.47090818600E+02  0.47000000000E+01 0. -1.
         13    1    4    4    0    0 -0.10603494134E+03 -0.40652204747E+02 -0.31571239267E+03  0.33551501519E+03  0.00000000000E+00 0. -1.
        -14    1    4    4    0    0  0.27069330115E+01 -0.37612143863E+02 -0.90168074010E+02  0.97735778623E+02  0.00000000000E+00 0.  1.
         -5    1    3    3    0  504  0.11768385175E+02  0.34376285412E+02 -0.32471016197E+02  0.48955906500E+02  0.47000000000E+01 0.  1.
<mgrwt>
<rscale>  2 0.20268362E+03</rscale>
<asrwt>0</asrwt>
<pdfrwt beam="1">  1       21 0.13669448E-01 0.20327288E+03</pdfrwt>
<pdfrwt beam="2">  1       21 0.94558958E-01 0.20327288E+03</pdfrwt>
<totfact> 0.43237524E+04</totfact>
</mgrwt>
</event>
<event>
12    1  0.2791583E-001  0.2967065E+03  0.7546771E-02  0.1087551E+00
         21   -1    0    0  502  503  0.00000000000E+00  0.00000000000E+00  0.27489775932E+03  0.27489775932E+03  0.00000000000E+00 0.  1.
         21   -1    0    0  503  504 -0.00000000000E+00 -0.00000000000E+00 -0.59441593926E+03  0.59441593926E+03  0.00000000000E+00 0. -1.
         -6    2    1    2    0  504 -0.19076638474E+03 -0.13656083914E+03  0.13910194766E+03  0.32308372178E+03  0.17318505449E+03 0.  0.
        -24    2    3    3    0    0 -0.70832940082E+02 -0.24133842105E+02  0.27717780222E+01  0.10946755674E+03  0.79848077560E+02 0.  0.
          6    2    1    2  502    0  0.19076638474E+03  0.13656083914E+03 -0.45862012760E+03  0.54622997681E+03  0.18164275319E+03 0.  0.
         24    2    5    5    0    0  0.52120082117E+02  0.13876312037E+03 -0.24976335953E+03  0.29548930033E+03  0.54410332728E+02 0.  0.
          4    1    6    6  501    0  0.28547183177E+02  0.11191283316E+03 -0.22197845174E+03  0.25022761025E+03  0.00000000000E+00 0. -1.
         -3    1    6    6    0  501  0.23572898941E+02  0.26850287207E+02 -0.27784907790E+02  0.45261690075E+02  0.00000000000E+00 0.  1.
          5    1    5    5  502    0  0.13864630263E+03 -0.22022812291E+01 -0.20885676807E+03  0.25074067648E+03  0.47000000000E+01 0. -1.
         13    1    4    4    0    0 -0.29492039172E+01 -0.31270679611E+02 -0.20320211280E+02  0.37409413168E+02  0.00000000000E+00 0. -1.
        -14    1    4    4    0    0 -0.67883736165E+02  0.71368375059E+01  0.23091989302E+02  0.72058143574E+02  0.00000000000E+00 0.  1.
         -5    1    3    3    0  504 -0.11993344466E+03 -0.11242699704E+03  0.13633016964E+03  0.21361616504E+03  0.47000000000E+01 0.  1.
<mgrwt>
<rscale>  2 0.29542296E+03</rscale>
<asrwt>0</asrwt>
<pdfrwt beam="1">  1       21 0.42291963E-01 0.29670653E+03</pdfrwt>
<pdfrwt beam="2">  1       21 0.91448606E-01 0.29670653E+03</pdfrwt>
<totfact> 0.50949243E+03</totfact>
</mgrwt>
</event>
<event>
12    1  0.2791583E-001  0.2868632E+03  0.7546771E-02  0.1092847E+00
         21   -1    0    0  502  503  0.00000000000E+00  0.00000000000E+00  0.91281086849E+02  0.91281086849E+02  0.00000000000E+00 0. -1.
         21   -1    0    0  503  504 -0.00000000000E+00 -0.00000000000E+00 -0.13301108634E+04  0.13301108634E+04  0.00000000000E+00 0.  1.
         -6    2    1    2    0  504  0.17319828422E+03 -0.13589824315E+03 -0.10366269049E+04  0.10755862779E+04  0.18391444528E+03 0.  0.
        -24    2    3    3    0    0  0.91049606089E+02  0.64613118959E+01 -0.45303480397E+03  0.46927243305E+03  0.81512597160E+02 0.  0.
          6    2    1    2  502    0 -0.17319828422E+03  0.13589824315E+03 -0.20220287165E+03  0.34580567231E+03  0.17386656823E+03 0.  0.
         24    2    5    5    0    0 -0.10699674582E+03  0.91242744682E+02 -0.20944870083E+03  0.26548538054E+03  0.82705422589E+02 0.  0.
          4    1    6    6  501    0 -0.66524572920E+02  0.93573936579E+01 -0.12066250466E+03  0.13810329340E+03  0.00000000000E+00 0. -1.
         -3    1    6    6    0  501 -0.40472172897E+02  0.81885351024E+02 -0.88786196171E+02  0.12738208713E+03  0.00000000000E+00 0.  1.
          5    1    5    5  502    0 -0.66201538401E+02  0.44655498471E+02  0.72458291772E+01  0.80320291775E+02  0.47000000000E+01 0. -1.
         11    1    4    4    0    0  0.86228939939E+01 -0.79571815650E+01 -0.24154987031E+03  0.24183467677E+03  0.00000000000E+00 0. -1.
        -12    1    4    4    0    0  0.82426712095E+02  0.14418493461E+02 -0.21148493366E+03  0.22743775629E+03  0.00000000000E+00 0.  1.
         -5    1    3    3    0  504  0.82148678129E+02 -0.14235955505E+03 -0.58359210090E+03  0.60631384486E+03  0.47000000000E+01 0.  1.
<mgrwt>
<rscale>  2 0.28526594E+03</rscale>
<asrwt>0</asrwt>
<pdfrwt beam="1">  1       21 0.14043245E-01 0.28686321E+03</pdfrwt>
<pdfrwt beam="2">  1       21 0.20463243E+00 0.28686321E+03</pdfrwt>
<totfact> 0.51573819E+03</totfact>
</mgrwt>
</event>
<event>
12    1  0.2791583E-001  0.1780611E+03  0.7546771E-02  0.1170139E+00
         21   -1    0    0  502  503  0.00000000000E+00  0.00000000000E+00  0.10885703051E+04  0.10885703051E+04  0.00000000000E+00 0. -1.
         21   -1    0    0  503  504 -0.00000000000E+00 -0.00000000000E+00 -0.48801310899E+02  0.48801310899E+02  0.00000000000E+00 0. -1.
         -6    2    1    2    0  504 -0.25086984038E+02  0.12346051821E+02  0.15453168848E+03  0.23440381928E+03  0.17402105041E+03 0.  0.
        -24    2    3    3    0    0 -0.68459453889E+02 -0.21844892963E+02  0.12409158201E+03  0.17116710583E+03  0.93464224258E+02 0.  0.
          6    2    1    2  502    0  0.25086984038E+02 -0.12346051821E+02  0.88523730575E+03  0.90296779675E+03  0.17585213309E+03 0.  0.
         24    2    5    5    0    0 -0.12269040009E+01 -0.71615668936E+02  0.65030712188E+03  0.65920645955E+03  0.80768151049E+02 0.  0.
          2    1    6    6  501    0 -0.17854258562E+02 -0.79913080548E+01  0.39767065386E+03  0.39815145924E+03  0.00000000000E+00 0. -1.
         -1    1    6    6    0  501  0.16627354561E+02 -0.63624360881E+02  0.25263646801E+03  0.26105500031E+03  0.00000000000E+00 0.  1.
          5    1    5    5  502    0  0.26313888039E+02  0.59269617115E+02  0.23493018387E+03  0.24376133720E+03  0.47000000000E+01 0. -1.
         11    1    4    4    0    0 -0.27555217887E+02 -0.69119902593E+01 -0.10050488844E+02  0.30134332050E+02  0.00000000000E+00 0. -1.
        -12    1    4    4    0    0 -0.40904236003E+02 -0.14932902703E+02  0.13414207086E+03  0.14103277378E+03  0.00000000000E+00 0.  1.
         -5    1    3    3    0  504  0.43372469851E+02  0.34190944783E+02  0.30440106469E+02  0.63236713451E+02  0.47000000000E+01 0.  1.
<mgrwt>
<rscale>  2 0.17760733E+03</rscale>
<asrwt>0</asrwt>
<pdfrwt beam="1">  1       21 0.16747234E+00 0.17806110E+03</pdfrwt>
<pdfrwt beam="2">  1       21 0.75078948E-02 0.17806110E+03</pdfrwt>
<totfact> 0.30079949E+04</totfact>
</mgrwt>
</event>
<event>
12    1  0.2791583E-001  0.2048796E+03  0.7546771E-02  0.1145882E+00
         21   -1    0    0  502  503  0.00000000000E+00  0.00000000000E+00  0.28201148024E+03  0.28201148024E+03  0.00000000000E+00 0.  1.
         21   -1    0    0  503  504 -0.00000000000E+00 -0.00000000000E+00 -0.17752677915E+03  0.17752677915E+03  0.00000000000E+00 0.  1.
         -6    2    1    2    0  504 -0.10741979588E+03 -0.40047679458E+02 -0.41324528011E+02  0.20807063997E+03  0.16865006797E+03 0.  0.
        -24    2    3    3    0    0 -0.10569543466E+03 -0.81411824392E+02 -0.95553685168E+01  0.15567469163E+03  0.79648568653E+02 0.  0.
          6    2    1    2  502    0  0.10741979588E+03  0.40047679458E+02  0.14580922910E+03  0.25146761942E+03  0.16980224719E+03 0.  0.
         24    2    5    5    0    0  0.13351449608E+03  0.63623642146E+02  0.13553295314E+03  0.21452914026E+03  0.76022905286E+02 0.  0.
          4    1    6    6  501    0  0.73750536692E+02  0.28176130332E+02  0.22929135812E+02  0.82211807253E+02  0.00000000000E+00 0. -1.
         -3    1    6    6    0  501  0.59763959389E+02  0.35447511814E+02  0.11260381733E+03  0.13231733300E+03  0.00000000000E+00 0.  1.
          5    1    5    5  502    0 -0.26094700204E+02 -0.23575962687E+02  0.10276275959E+02  0.36938479164E+02  0.47000000000E+01 0. -1.
         13    1    4    4    0    0  0.49728716292E+01 -0.35038550052E+02 -0.21865065002E+01  0.35457160809E+02  0.00000000000E+00 0. -1.
        -14    1    4    4    0    0 -0.11066830629E+03 -0.46373274340E+02 -0.73688620166E+01  0.12021753082E+03  0.00000000000E+00 0.  1.
         -5    1    3    3    0  504 -0.17243612205E+01  0.41364144934E+02 -0.31769159494E+02  0.52395948342E+02  0.47000000000E+01 0.  1.
<mgrwt>
<rscale>  2 0.20464066E+03</rscale>
<asrwt>0</asrwt>
<pdfrwt beam="1">  1       21 0.43386382E-01 0.20487956E+03</pdfrwt>
<pdfrwt beam="2">  1       21 0.27311812E-01 0.20487956E+03</pdfrwt>
<totfact> 0.64918387E+04</totfact>
</mgrwt>
</event>
<event>
12    1  0.2791583E-001  0.1826994E+03  0.7546771E-02  0.1165813E+00
         21   -1    0    0  502  503  0.00000000000E+00  0.00000000000E+00  0.29867228296E+02  0.29867228296E+02  0.00000000000E+00 0. -1.
         21   -1    0    0  503  504 -0.00000000000E+00 -0.00000000000E+00 -0.11029567478E+04  0.11029567478E+04  0.00000000000E+00 0. -1.
         -6    2    1    2    0  504  0.16410328388E+02  0.54172408278E+02 -0.55349543176E+03  0.58286899922E+03  0.17370989776E+03 0.  0.
        -24    2    3    3    0    0 -0.18379910986E+02  0.70150048059E+02 -0.52199772148E+03  0.53307099242E+03  0.80151178140E+02 0.  0.
          6    2    1    2  502    0 -0.16410328388E+02 -0.54172408278E+02 -0.51959408777E+03  0.54995497690E+03  0.17108042517E+03 0.  0.
         24    2    5    5    0    0 -0.58987376299E+01 -0.55134689621E+02 -0.52723103109E+03  0.53610461845E+03  0.79755706246E+02 0.  0.
          2    1    6    6  501    0  0.27321251662E+02 -0.52473564877E+02 -0.40936300042E+03  0.41361575395E+03  0.00000000000E+00 0. -1.
         -1    1    6    6    0  501 -0.33219989292E+02 -0.26611247441E+01 -0.11786803067E+03  0.12248886450E+03  0.00000000000E+00 0.  1.
          5    1    5    5  502    0 -0.10511590758E+02  0.96228134355E+00  0.76369433242E+01  0.13850358442E+02  0.47000000000E+01 0. -1.
         13    1    4    4    0    0 -0.41922217770E+02  0.54835692069E+02 -0.24149555691E+03  0.25116633826E+03  0.00000000000E+00 0. -1.
        -14    1    4    4    0    0  0.23542306784E+02  0.15314355990E+02 -0.28050216457E+03  0.28190465416E+03  0.00000000000E+00 0.  1.
         -5    1    3    3    0  504  0.34790239374E+02 -0.15977639781E+02 -0.31497710279E+02  0.49798006802E+02  0.47000000000E+01 0.  1.
<mgrwt>
<rscale>  2 0.18207163E+03</rscale>
<asrwt>0</asrwt>
<pdfrwt beam="1">  1       21 0.45949583E-02 0.18269942E+03</pdfrwt>
<pdfrwt beam="2">  1       21 0.16968565E+00 0.18269942E+03</pdfrwt>
<totfact> 0.66924904E+04</totfact>
</mgrwt>
</event>
<event>
12    1  0.2791583E-001  0.2297996E+03  0.7546771E-02  0.1126879E+00
         21   -1    0    0  502  503  0.00000000000E+00  0.00000000000E+00  0.35602839664E+03  0.35602839664E+03  0.00000000000E+00 0. -1.
         21   -1    0    0  503  504 -0.00000000000E+00 -0.00000000000E+00 -0.18633075502E+03  0.18633075502E+03  0.00000000000E+00 0.  1.
         -6    2    1    2    0  504 -0.13871405753E+03  0.58874816870E+02 -0.38121579621E+02  0.23294013898E+03  0.17349357250E+03 0.  0.
        -24    2    3    3    0    0 -0.32687896125E+02  0.81564988235E+02 -0.99739432641E+01  0.12082069280E+03  0.82321409163E+02 0.  0.
          6    2    1    2  502    0  0.13871405753E+03 -0.58874816870E+02  0.20781922124E+03  0.30941901267E+03  0.17275260597E+03 0.  0.
         24    2    5    5    0    0  0.14573486670E+03  0.35507242539E+01  0.15602999382E+03  0.22786869677E+03  0.79545741465E+02 0.  0.
          2    1    6    6  501    0  0.14686290889E+03 -0.14849906485E+02  0.13984777672E+03  0.20333871836E+03  0.00000000000E+00 0. -1.
         -1    1    6    6    0  501 -0.11280421964E+01  0.18400630739E+02  0.16182217101E+02  0.24529978416E+02  0.00000000000E+00 0.  1.
          5    1    5    5  502    0 -0.70208091681E+01 -0.62425541123E+02  0.51789227421E+02  0.81550315896E+02  0.47000000000E+01 0. -1.
         11    1    4    4    0    0 -0.54466498422E+02  0.82063551316E+02 -0.59956760708E+01  0.98676106715E+02  0.00000000000E+00 0. -1.
        -12    1    4    4    0    0  0.21778602298E+02 -0.49856308059E+00 -0.39782671932E+01  0.22144586089E+02  0.00000000000E+00 0.  1.
         -5    1    3    3    0  504 -0.10602616140E+03 -0.22690171366E+02 -0.28147636357E+02  0.11211944618E+03  0.47000000000E+01 0.  1.
<mgrwt>
<rscale>  2 0.22965974E+03</rscale>
<asrwt>0</asrwt>
<pdfrwt beam="1">  1       21 0.54773599E-01 0.22979959E+03</pdfrwt>
<pdfrwt beam="2">  1       21 0.28666270E-01 0.22979959E+03</pdfrwt>
<totfact> 0.35950430E+04</totfact>
</mgrwt>
</event>
<event>
12    1  0.2791583E-001  0.2244877E+03  0.7546771E-02  0.1130612E+00
         21   -1    0    0  502  503  0.00000000000E+00  0.00000000000E+00  0.95036756979E+02  0.95036756979E+02  0.00000000000E+00 0. -1.
         21   -1    0    0  503  504 -0.00000000000E+00 -0.00000000000E+00 -0.96234605431E+03  0.96234605431E+03  0.00000000000E+00 0. -1.
         -6    2    1    2    0  504  0.90975200808E+02  0.10988049890E+03 -0.78798757442E+03  0.81929319333E+03  0.17310894833E+03 0.  0.
        -24    2    3    3    0    0 -0.13076232104E+02  0.79954511521E+02 -0.42289910233E+03  0.43845996491E+03  0.82702952318E+02 0.  0.
          6    2    1    2  502    0 -0.90975200808E+02 -0.10988049890E+03 -0.79321722911E+02  0.23808961796E+03  0.17333354913E+03 0.  0.
         24    2    5    5    0    0 -0.60227378270E+02 -0.17438907943E+02 -0.94787540997E+02  0.13933660353E+03  0.80613637512E+02 0.  0.
          4    1    6    6  501    0 -0.41866743274E+01  0.24768302960E+02 -0.53801056337E+01  0.25689348184E+02  0.00000000000E+00 0. -1.
         -3    1    6    6    0  501 -0.56040703942E+02 -0.42207210904E+02 -0.89407435363E+02  0.11364725535E+03  0.00000000000E+00 0.  1.
          5    1    5    5  502    0 -0.30747822538E+02 -0.92441590955E+02  0.15465818086E+02  0.98753014426E+02  0.47000000000E+01 0. -1.
         11    1    4    4    0    0  0.11583002958E+02 -0.62695305309E+01 -0.11771129610E+02  0.17664440634E+02  0.00000000000E+00 0. -1.
        -12    1    4    4    0    0 -0.24659235062E+02  0.86224042052E+02 -0.41112797272E+03  0.42079552428E+03  0.00000000000E+00 0.  1.
         -5    1    3    3    0  504  0.10405143291E+03  0.29925987377E+02 -0.36508847209E+03  0.38083322841E+03  0.47000000000E+01 0.  1.
<mgrwt>
<rscale>  2 0.22444435E+03</rscale>
<asrwt>0</asrwt>
<pdfrwt beam="1">  1       21 0.14621040E-01 0.22448771E+03</pdfrwt>
<pdfrwt beam="2">  1       21 0.14805324E+00 0.22448771E+03</pdfrwt>
<totfact> 0.12433837E+04</totfact>
</mgrwt>
</event>
<event>
12    1  0.2791583E-001  0.2191790E+03  0.7546771E-02  0.1134797E+00
         21   -1    0    0  502  503  0.00000000000E+00  0.00000000000E+00  0.32252917207E+03  0.32252917207E+03  0.00000000000E+00 0.  1.
         21   -1    0    0  503  504 -0.00000000000E+00 -0.00000000000E+00 -0.25511697168E+03  0.25511697168E+03  0.00000000000E+00 0.  1.
         -6    2    1    2    0  504 -0.14393709965E+02 -0.12616496436E+03  0.22090619157E+03  0.31006466959E+03  0.17667987078E+03 0.  0.
        -24    2    3    3    0    0 -0.64106796406E+02 -0.10936075954E+03  0.10525176875E+03  0.18297490690E+03  0.79576533339E+02 0.  0.
          6    2    1    2  502    0  0.14393709965E+02  0.12616496436E+03 -0.15349399118E+03  0.26758147416E+03  0.17864675443E+03 0.  0.
         24    2    5    5    0    0 -0.29096505727E+02  0.24574139416E+01 -0.33068265084E+02  0.89482056990E+02  0.77851672035E+02 0.  0.
          2    1    6    6  501    0  0.81188515497E+01 -0.25054772677E+01  0.21572549025E+02  0.23185513544E+02  0.00000000000E+00 0. -1.
         -1    1    6    6    0  501 -0.37215357276E+02  0.49628912093E+01 -0.54640814110E+02  0.66296543446E+02  0.00000000000E+00 0.  1.
          5    1    5    5  502    0  0.43490215692E+02  0.12370755042E+03 -0.12042572609E+03  0.17809941717E+03  0.47000000000E+01 0. -1.
         13    1    4    4    0    0 -0.79967943522E+02 -0.66622382126E+02  0.73652256772E+02  0.12750713203E+03  0.00000000000E+00 0. -1.
        -14    1    4    4    0    0  0.15861147116E+02 -0.42738377418E+02  0.31599511977E+02  0.55467774873E+02  0.00000000000E+00 0.  1.
         -5    1    3    3    0  504  0.49713086441E+02 -0.16804204814E+02  0.11565442282E+03  0.12708976269E+03  0.47000000000E+01 0.  1.
<mgrwt>
<rscale>  2 0.21877787E+03</rscale>
<asrwt>0</asrwt>
<pdfrwt beam="1">  1       21 0.49619872E-01 0.21917901E+03</pdfrwt>
<pdfrwt beam="2">  1       21 0.39248765E-01 0.21917901E+03</pdfrwt>
<totfact> 0.23870878E+04</totfact>
</mgrwt>
</event>
<event>
12    1  0.2791583E-001  0.1952121E+03  0.7546771E-02  0.1153941E+00
         21   -1    0    0  502  503  0.00000000000E+00  0.00000000000E+00  0.75469243995E+03  0.75469243995E+03  0.00000000000E+00 0. -1.
         21   -1    0    0  503  504 -0.00000000000E+00 -0.00000000000E+00 -0.54348267205E+02  0.54348267205E+02  0.00000000000E+00 0. -1.
         -6    2    1    2    0  504  0.85860714868E+02  0.25015587175E+02  0.24121217388E+03  0.31030801006E+03  0.17352206291E+03 0.  0.
        -24    2    3    3    0    0  0.29341777347E+02  0.23359471776E+02  0.23665910270E+03  0.25338742087E+03  0.82407823310E+02 0.  0.
          6    2    1    2  502    0 -0.85860714868E+02 -0.25015587175E+02  0.45913199886E+03  0.49873269710E+03  0.17301522713E+03 0.  0.
         24    2    5    5    0    0 -0.96852124366E+02  0.20643621100E+02  0.21084658564E+03  0.24600099984E+03  0.79080441057E+02 0.  0.
          4    1    6    6  501    0 -0.94193088395E+02 -0.20769972039E+00  0.20259100378E+03  0.22341776083E+03  0.00000000000E+00 0. -1.
         -3    1    6    6    0  501 -0.26590359710E+01  0.20851320820E+02  0.82555818600E+01  0.22583239008E+02  0.00000000000E+00 0.  1.
          5    1    5    5  502    0  0.10991409498E+02 -0.45659208275E+02  0.24828541322E+03  0.25273169726E+03  0.47000000000E+01 0. -1.
         11    1    4    4    0    0  0.16438818736E+02  0.50017018517E+02  0.94504988358E+02  0.10818100447E+03  0.00000000000E+00 0. -1.
        -12    1    4    4    0    0  0.12902958611E+02 -0.26657546741E+02  0.14215411434E+03  0.14520641640E+03  0.00000000000E+00 0.  1.
         -5    1    3    3    0  504  0.56518937521E+02  0.16561153986E+01  0.45530711838E+01  0.56920589191E+02  0.47000000000E+01 0.  1.
<mgrwt>
<rscale>  2 0.19509937E+03</rscale>
<asrwt>0</asrwt>
<pdfrwt beam="1">  1       21 0.11610652E+00 0.19521206E+03</pdfrwt>
<pdfrwt beam="2">  1       21 0.83612724E-02 0.19521206E+03</pdfrwt>
<totfact> 0.63555425E+04</totfact>
</mgrwt>
</event>
<event>
12    1  0.2791583E-001  0.1919807E+03  0.7546771E-02  0.1157253E+00
         21   -1    0    0  502  503  0.00000000000E+00  0.00000000000E+00  0.16048471179E+03  0.16048471179E+03  0.00000000000E+00 0. -1.
         21   -1    0    0  503  504 -0.00000000000E+00 -0.00000000000E+00 -0.57031200985E+03  0.57031200985E+03  0.00000000000E+00 0. -1.
         -6    2    1    2    0  504 -0.75376624171E+02 -0.27845756236E+02 -0.48909876998E+03  0.52542763481E+03  0.17435472753E+03 0.  0.
        -24    2    3    3    0    0 -0.61866783162E+02 -0.82775544531E+02 -0.28444960144E+03  0.31305256652E+03  0.80068995335E+02 0.  0.
          6    2    1    2  502    0  0.75376624171E+02  0.27845756236E+02  0.79271471915E+02  0.20536908683E+03  0.17156769496E+03 0.  0.
         24    2    5    5    0    0  0.43381704897E+02  0.80301483204E+02  0.75515220262E+02  0.14363192154E+03  0.81223641082E+02 0.  0.
          4    1    6    6  501    0  0.53535997260E+02  0.67301784072E+02  0.23626511366E+02  0.89184332600E+02  0.00000000000E+00 0. -1.
         -3    1    6    6    0  501 -0.10154292363E+02  0.12999699132E+02  0.51888708896E+02  0.54447588944E+02  0.00000000000E+00 0.  1.
          5    1    5    5  502    0  0.31994919273E+02 -0.52455726968E+02  0.37562516524E+01  0.61737165286E+02  0.47000000000E+01 0. -1.
         11    1    4    4    0    0 -0.76547192543E+02 -0.43839530547E+02 -0.17538123572E+03  0.19631595699E+03  0.00000000000E+00 0. -1.
        -12    1    4    4    0    0  0.14680409380E+02 -0.38936013983E+02 -0.10906836572E+03  0.11673660954E+03  0.00000000000E+00 0.  1.
         -5    1    3    3    0  504 -0.13509841009E+02  0.54929788295E+02 -0.20464916854E+03  0.21237506829E+03  0.47000000000E+01 0.  1.
<mgrwt>
<rscale>  2 0.19134568E+03</rscale>
<asrwt>0</asrwt>
<pdfrwt beam="1">  1       21 0.24689956E-01 0.19198071E+03</pdfrwt>
<pdfrwt beam="2">  1       21 0.87740309E-01 0.19198071E+03</pdfrwt>
<totfact> 0.17289683E+04</totfact>
</mgrwt>
</event>
<event>
12    1  0.2791583E-001  0.1903269E+03  0.7546771E-02  0.1158596E+00
         21   -1    0    0  502  503  0.00000000000E+00  0.00000000000E+00  0.35205702881E+03  0.35205702881E+03  0.00000000000E+00 0.  1.
         21   -1    0    0  503  504 -0.00000000000E+00 -0.00000000000E+00 -0.14008323104E+03  0.14008323104E+03  0.00000000000E+00 0.  1.
         -6    2    1    2    0  504  0.14286002626E+02  0.70891085819E+02  0.23411887144E+03  0.30052935119E+03  0.17400175012E+03 0.  0.
        -24    2    3    3    0    0 -0.39815541662E+02 -0.66362509318E+01  0.13814038865E+03  0.16572792614E+03  0.82180662818E+02 0.  0.
          6    2    1    2  502    0 -0.14286002626E+02 -0.70891085819E+02 -0.22145073671E+02  0.19161090865E+03  0.17605311728E+03 0.  0.
         24    2    5    5    0    0 -0.52933217274E+02 -0.89118863127E+02 -0.50161326643E+02  0.14029951132E+03  0.80147968962E+02 0.  0.
          4    1    6    6  501    0  0.18514096143E+02 -0.32409422516E+02 -0.25702465960E+01  0.37413214128E+02  0.00000000000E+00 0. -1.
         -3    1    6    6    0  501 -0.71447313417E+02 -0.56709440611E+02 -0.47591080047E+02  0.10288629719E+03  0.00000000000E+00 0.  1.
          5    1    5    5  502    0  0.38647214648E+02  0.18227777308E+02  0.28016252972E+02  0.51311397333E+02  0.47000000000E+01 0. -1.
         13    1    4    4    0    0 -0.39378184352E+02 -0.27921773319E+02  0.13602076699E+03  0.14433265702E+03  0.00000000000E+00 0. -1.
        -14    1    4    4    0    0 -0.43735730979E+00  0.21285522387E+02  0.21196216550E+01  0.21395269119E+02  0.00000000000E+00 0.  1.
         -5    1    3    3    0  504  0.54101544288E+02  0.77527336751E+02  0.95978482793E+02  0.13480142506E+03  0.47000000000E+01 0.  1.
<mgrwt>
<rscale>  2 0.18985116E+03</rscale>
<asrwt>0</asrwt>
<pdfrwt beam="1">  1       21 0.54162619E-01 0.19032692E+03</pdfrwt>
<pdfrwt beam="2">  1       21 0.21551267E-01 0.19032692E+03</pdfrwt>
<totfact> 0.64722227E+04</totfact>
</mgrwt>
</event>
<event>
12    1  0.2791583E-001  0.1922063E+03  0.7546771E-02  0.1156668E+00
         21   -1    0    0  502  503  0.00000000000E+00  0.00000000000E+00  0.67453296735E+03  0.67453296735E+03  0.00000000000E+00 0.  1.
         21   -1    0    0  503  504 -0.00000000000E+00 -0.00000000000E+00 -0.14156340312E+03  0.14156340312E+03  0.00000000000E+00 0.  1.
         -6    2    1    2    0  504 -0.82285959771E+02  0.95734138837E+01 -0.53670407728E+02  0.19877172551E+03  0.17253132112E+03 0.  0.
        -24    2    3    3    0    0 -0.87974887963E+02  0.36932025169E+02  0.14392126386E+02  0.12504617997E+03  0.79535265304E+02 0.  0.
          6    2    1    2  502    0  0.82285959771E+02 -0.95734138837E+01  0.58663997196E+03  0.61732464496E+03  0.17343768666E+03 0.  0.
         24    2    5    5    0    0  0.53133908757E+02 -0.74018268396E+02  0.36677531668E+03  0.38631482268E+03  0.80081789329E+02 0.  0.
          4    1    6    6  501    0 -0.11856310205E+02 -0.16363737996E+02  0.18601612673E+02  0.27465687810E+02  0.00000000000E+00 0. -1.
         -3    1    6    6    0  501  0.64990218962E+02 -0.57654530400E+02  0.34817370400E+03  0.35884913487E+03  0.00000000000E+00 0.  1.
          5    1    5    5  502    0  0.29152051014E+02  0.64444854512E+02  0.21986465528E+03  0.23100982229E+03  0.47000000000E+01 0. -1.
         11    1    4    4    0    0 -0.66649058875E+02 -0.11873437444E+02 -0.61135154367E+01  0.67973896730E+02  0.00000000000E+00 0. -1.
        -12    1    4    4    0    0 -0.21325829088E+02  0.48805462613E+02  0.20505641822E+02  0.57072283236E+02  0.00000000000E+00 0.  1.
         -5    1    3    3    0  504  0.56889281921E+01 -0.27358611286E+02 -0.68062534114E+02  0.73725545542E+02  0.47000000000E+01 0.  1.
<mgrwt>
<rscale>  2 0.19200160E+03</rscale>
<asrwt>0</asrwt>
<pdfrwt beam="1">  1       21 0.10377430E+00 0.19220630E+03</pdfrwt>
<pdfrwt beam="2">  1       21 0.21778986E-01 0.19220630E+03</pdfrwt>
<totfact> 0.14789597E+04</totfact>
</mgrwt>
</event>
<event>
12    1  0.2791583E-001  0.3449257E+03  0.7546771E-02  0.1064794E+00
         21   -1    0    0  502  503  0.00000000000E+00  0.00000000000E+00  0.95390519762E+03  0.95390519762E+03  0.00000000000E+00 0. -1.
         21   -1    0    0  503  504 -0.00000000000E+00 -0.00000000000E+00 -0.14763032917E+03  0.14763032917E+03  0.00000000000E+00 0.  1.
         -6    2    1    2    0  504  0.87968411441E+01 -0.29767340891E+03  0.18455910995E+03  0.39054731012E+03  0.17256388263E+03 0.  0.
        -24    2    3    3    0    0  0.64237626948E+02 -0.25305562950E+03  0.13096139335E+03  0.30133278106E+03  0.74073841932E+02 0.  0.
          6    2    1    2  502    0 -0.87968411441E+01  0.29767340891E+03  0.62171575851E+03  0.71098821667E+03  0.17403136811E+03 0.  0.
         24    2    5    5    0    0  0.24668040382E+02  0.14855285119E+03  0.19828016046E+03  0.26079199865E+03  0.77594991558E+02 0.  0.
          4    1    6    6  501    0 -0.10255570394E+02 -0.15915089509E+01  0.99859070970E+00  0.10426255716E+02  0.00000000000E+00 0. -1.
         -3    1    6    6    0  501  0.34923610777E+02  0.15014436014E+03  0.19728156975E+03  0.25036574293E+03  0.00000000000E+00 0.  1.
          5    1    5    5  502    0 -0.33464881527E+02  0.14912055772E+03  0.42343559805E+03  0.45019621803E+03  0.47000000000E+01 0. -1.
         13    1    4    4    0    0 -0.76605324626E+01 -0.84926932610E+02  0.63936343783E+02  0.10657918979E+03  0.00000000000E+00 0. -1.
        -14    1    4    4    0    0  0.71898159411E+02 -0.16812869689E+03  0.67025049565E+02  0.19475359127E+03  0.00000000000E+00 0.  1.
         -5    1    3    3    0  504 -0.55440785804E+02 -0.44617779415E+02  0.53597716598E+02  0.89214529058E+02  0.47000000000E+01 0.  1.
<mgrwt>
<rscale>  2 0.34474106E+03</rscale>
<asrwt>0</asrwt>
<pdfrwt beam="1">  1       21 0.14675464E+00 0.34492573E+03</pdfrwt>
<pdfrwt beam="2">  1       21 0.22712359E-01 0.34492573E+03</pdfrwt>
<totfact> 0.52334663E+03</totfact>
</mgrwt>
</event>
<event>
12    1  0.2791583E-001  0.1922138E+03  0.7546771E-02  0.1157714E+00
         21   -1    0    0  502  503  0.00000000000E+00  0.00000000000E+00  0.63014822886E+02  0.63014822886E+02  0.00000000000E+00 0. -1.
         21   -1    0    0  503  504 -0.00000000000E+00 -0.00000000000E+00 -0.59337593258E+03  0.59337593258E+03  0.00000000000E+00 0. -1.
         -6    2    1    2    0  504 -0.48891436390E+02 -0.48180136391E+02 -0.20334974300E+03  0.27981646352E+03  0.17953951426E+03 0.  0.
        -24    2    3    3    0    0 -0.42278068866E+02 -0.72591936299E+02 -0.22037167451E+03  0.24896992794E+03  0.79782991737E+02 0.  0.
          6    2    1    2  502    0  0.48891436390E+02  0.48180136391E+02 -0.32701136669E+03  0.37657429195E+03  0.17366653481E+03 0.  0.
         24    2    5    5    0    0  0.49928731457E+02  0.13086780754E+02 -0.74423147341E+02  0.12151445947E+03  0.81011214924E+02 0.  0.
          4    1    6    6  501    0  0.71128388978E+02  0.12906082004E+02 -0.44659536390E+02  0.84972282904E+02  0.00000000000E+00 0. -1.
         -3    1    6    6    0  501 -0.21199657520E+02  0.18069874960E+00 -0.29763610951E+02  0.36542176561E+02  0.00000000000E+00 0.  1.
          5    1    5    5  502    0 -0.10372950673E+01  0.35093355638E+02 -0.25258821935E+03  0.25505983248E+03  0.47000000000E+01 0. -1.
         13    1    4    4    0    0  0.46121581742E+01 -0.68276137246E+00  0.55731363403E+01  0.72662242453E+01  0.00000000000E+00 0. -1.
        -14    1    4    4    0    0 -0.46890227040E+02 -0.71909174927E+02 -0.22594481085E+03  0.24170370370E+03  0.00000000000E+00 0.  1.
         -5    1    3    3    0  504 -0.66133675238E+01  0.24411799908E+02  0.17021931509E+02  0.30846535576E+02  0.47000000000E+01 0.  1.
<mgrwt>
<rscale>  2 0.19083043E+03</rscale>
<asrwt>0</asrwt>
<pdfrwt beam="1">  1       21 0.96945880E-02 0.19221377E+03</pdfrwt>
<pdfrwt beam="2">  1       21 0.91288607E-01 0.19221377E+03</pdfrwt>
<totfact> 0.87147700E+04</totfact>
</mgrwt>
</event>
<event>
12    1  0.2791583E-001  0.1841600E+03  0.7546771E-02  0.1163849E+00
         21   -1    0    0  502  503  0.00000000000E+00  0.00000000000E+00  0.41632115077E+03  0.41632115077E+03  0.00000000000E+00 0.  1.
         21   -1    0    0  503  504 -0.00000000000E+00 -0.00000000000E+00 -0.46343402375E+03  0.46343402375E+03  0.00000000000E+00 0.  1.
         -6    2    1    2    0  504 -0.83163352029E+01  0.64576773383E+02 -0.42291748141E+03  0.46125308819E+03  0.17220886793E+03 0.  0.
        -24    2    3    3    0    0 -0.24617488803E+02  0.10818731432E+03 -0.30005975059E+03  0.32978552979E+03  0.80075751650E+02 0.  0.
          6    2    1    2  502    0  0.83163352029E+01 -0.64576773383E+02  0.37580460843E+03  0.41850208633E+03  0.17226599043E+03 0.  0.
         24    2    5    5    0    0  0.39833808510E+02 -0.88799488513E+02  0.34719219832E+03  0.36929994142E+03  0.79799390341E+02 0.  0.
          4    1    6    6  501    0 -0.57896558296E+01 -0.49765353460E+02  0.72531376513E+02  0.88152771361E+02  0.00000000000E+00 0. -1.
         -3    1    6    6    0  501  0.45623464340E+02 -0.39034135053E+02  0.27466082180E+03  0.28114717006E+03  0.00000000000E+00 0.  1.
          5    1    5    5  502    0 -0.31517473308E+02  0.24222715130E+02  0.28612410112E+02  0.49202144916E+02  0.47000000000E+01 0. -1.
         13    1    4    4    0    0 -0.40462924515E+02  0.22265013340E+02 -0.14015006038E+03  0.14756360833E+03  0.00000000000E+00 0. -1.
        -14    1    4    4    0    0  0.15845435712E+02  0.85922300976E+02 -0.15990969021E+03  0.18222192147E+03  0.00000000000E+00 0.  1.
         -5    1    3    3    0  504  0.16301153600E+02 -0.43610540933E+02 -0.12285773082E+03  0.13146755840E+03  0.47000000000E+01 0.  1.
<mgrwt>
<rscale>  2 0.18414661E+03</rscale>
<asrwt>0</asrwt>
<pdfrwt beam="1">  1       21 0.64049408E-01 0.18415996E+03</pdfrwt>
<pdfrwt beam="2">  1       21 0.71297542E-01 0.18415996E+03</pdfrwt>
<totfact> 0.40319708E+03</totfact>
</mgrwt>
</event>
<event>
12    1  0.2791583E-001  0.1903227E+03  0.7546771E-02  0.1158790E+00
         21   -1    0    0  502  503  0.00000000000E+00  0.00000000000E+00  0.10652502921E+03  0.10652502921E+03  0.00000000000E+00 0. -1.
         21   -1    0    0  503  504 -0.00000000000E+00 -0.00000000000E+00 -0.54321774644E+03  0.54321774644E+03  0.00000000000E+00 0.  1.
         -6    2    1    2    0  504  0.68871259132E+02 -0.18278061957E+02 -0.42036541579E+03  0.46144317226E+03  0.17648053874E+03 0.  0.
        -24    2    3    3    0    0  0.11246555563E+03 -0.34099606575E+02 -0.28617017390E+03  0.31938249189E+03  0.79375835925E+02 0.  0.
          6    2    1    2  502    0 -0.68871259132E+02  0.18278061957E+02 -0.16327301450E+02  0.18829960339E+03  0.17353046412E+03 0.  0.
         24    2    5    5    0    0 -0.37062441899E+02 -0.52565498562E+02 -0.37068600030E+02  0.10778313061E+03  0.78143239620E+02 0.  0.
          4    1    6    6  501    0 -0.24543153222E+02 -0.50680146288E+02  0.11601816857E+02  0.57493006116E+02  0.00000000000E+00 0. -1.
         -3    1    6    6    0  501 -0.12519288677E+02 -0.18853522735E+01 -0.48670416886E+02  0.50290124498E+02  0.00000000000E+00 0.  1.
          5    1    5    5  502    0 -0.31808817232E+02  0.70843560519E+02  0.20741298580E+02  0.80516472771E+02  0.47000000000E+01 0. -1.
         11    1    4    4    0    0  0.78269474275E+02  0.55596723355E+01 -0.10681233645E+03  0.13253639416E+03  0.00000000000E+00 0. -1.
        -12    1    4    4    0    0  0.34196081353E+02 -0.39659278910E+02 -0.17935783745E+03  0.18684609773E+03  0.00000000000E+00 0.  1.
         -5    1    3    3    0  504 -0.43594296497E+02  0.15821544618E+02 -0.13419524189E+03  0.14206068037E+03  0.47000000000E+01 0.  1.
<mgrwt>
<rscale>  2 0.18963589E+03</rscale>
<asrwt>0</asrwt>
<pdfrwt beam="1">  1       21 0.16388466E-01 0.19032267E+03</pdfrwt>
<pdfrwt beam="2">  1       21 0.83571961E-01 0.19032267E+03</pdfrwt>
<totfact> 0.41611953E+04</totfact>
</mgrwt>
</event>
<event>
12    1  0.2791583E-001  0.2150000E+03  0.7546771E-02  0.1137842E+00
         21   -1    0    0  502  503  0.00000000000E+00  0.00000000000E+00  0.43762541482E+03  0.43762541482E+03  0.00000000000E+00 0. -1.
         21   -1    0    0  503  504 -0.00000000000E+00 -0.00000000000E+00 -0.13493737155E+03  0.13493737155E+03  0.00000000000E+00 0. -1.
         -6    2    1    2    0  504 -0.12675891506E+03 -0.58037146486E+01  0.17156114059E+02  0.21568338228E+03  0.17356118084E+03 0.  0.
        -24    2    3    3    0    0 -0.23318585983E+02  0.47883020001E+02  0.72279046803E-01  0.97801600080E+02  0.82028090903E+02 0.  0.
          6    2    1    2  502    0  0.12675891506E+03  0.58037146486E+01  0.28553192921E+03  0.35687940409E+03  0.17243236592E+03 0.  0.
         24    2    5    5    0    0  0.14773819745E+03 -0.29938887662E+02  0.21057911115E+03  0.27110249085E+03  0.80187820226E+02 0.  0.
          4    1    6    6  501    0  0.13424712150E+03 -0.24515020066E+01  0.13905232105E+03  0.19329730334E+03  0.00000000000E+00 0. -1.
         -3    1    6    6    0  501  0.13491075959E+02 -0.27487385655E+02  0.71526790104E+02  0.77805187509E+02  0.00000000000E+00 0.  1.
          5    1    5    5  502    0 -0.20979282395E+02  0.35742602310E+02  0.74952818060E+02  0.85776913240E+02  0.47000000000E+01 0. -1.
         11    1    4    4    0    0 -0.51961202703E+02  0.32242047387E+02  0.13311212668E+02  0.62583580824E+02  0.00000000000E+00 0. -1.
        -12    1    4    4    0    0  0.28642616720E+02  0.15640972613E+02 -0.13238933621E+02  0.35218019256E+02  0.00000000000E+00 0.  1.
         -5    1    3    3    0  504 -0.10344032908E+03 -0.53686734650E+02  0.17083835012E+02  0.11788178220E+03  0.47000000000E+01 0.  1.
<mgrwt>
<rscale>  2 0.21477206E+03</rscale>
<asrwt>0</asrwt>
<pdfrwt beam="1">  1       21 0.67326986E-01 0.21499997E+03</pdfrwt>
<pdfrwt beam="2">  1       21 0.20759596E-01 0.21499997E+03</pdfrwt>
<totfact> 0.42967183E+04</totfact>
</mgrwt>
</event>
<event>
12    1  0.2791583E-001  0.2292433E+03  0.7546771E-02  0.1129296E+00
         21   -1    0    0  502  503  0.00000000000E+00  0.00000000000E+00  0.57416191693E+03  0.57416191693E+03  0.00000000000E+00 0.  1.
         21   -1    0    0  503  504 -0.00000000000E+00 -0.00000000000E+00 -0.13169040669E+03  0.13169040669E+03  0.00000000000E+00 0. -1.
         -6    2    1    2    0  504 -0.97958885476E+02 -0.87061970196E+02  0.19330576842E+02  0.23005683656E+03  0.18808707279E+03 0.  0.
        -24    2    3    3    0    0 -0.12307777060E+03 -0.48790321343E+02 -0.34826385888E+02  0.15898824922E+03  0.80844005114E+02 0.  0.
          6    2    1    2  502    0  0.97958885476E+02  0.87061970196E+02  0.42314093339E+03  0.47579548706E+03  0.17365876337E+03 0.  0.
         24    2    5    5    0    0  0.75852008571E+02  0.38720820307E+02  0.40164540549E+03  0.41826524719E+03  0.79837059858E+02 0.  0.
          4    1    6    6  501    0  0.65091034910E+02 -0.10866905909E+02  0.22710423482E+03  0.23649791953E+03  0.00000000000E+00 0. -1.
         -3    1    6    6    0  501  0.10760973661E+02  0.49587726216E+02  0.17454117068E+03  0.18176732767E+03  0.00000000000E+00 0.  1.
          5    1    5    5  502    0  0.22106876905E+02  0.48341149889E+02  0.21495527899E+02  0.57530239863E+02  0.47000000000E+01 0. -1.
         11    1    4    4    0    0 -0.11473980968E+03 -0.68237960797E+02 -0.34247438938E+02  0.13782064538E+03  0.00000000000E+00 0. -1.
        -12    1    4    4    0    0 -0.83379609200E+01  0.19447639455E+02 -0.57894694947E+00  0.21167603838E+02  0.00000000000E+00 0.  1.
         -5    1    3    3    0  504  0.25118885121E+02 -0.38271648853E+02  0.54156962730E+02  0.71068587349E+02  0.47000000000E+01 0.  1.
<mgrwt>
<rscale>  2 0.22626535E+03</rscale>
<asrwt>0</asrwt>
<pdfrwt beam="1">  1       21 0.88332601E-01 0.22924327E+03</pdfrwt>
<pdfrwt beam="2">  1       21 0.20260063E-01 0.22924327E+03</pdfrwt>
<totfact> 0.24214123E+04</totfact>
</mgrwt>
</event>
<event>
12    1  0.2791583E-001  0.2190921E+03  0.7546771E-02  0.1134697E+00
         21   -1    0    0  502  503  0.00000000000E+00  0.00000000000E+00  0.36675977731E+03  0.36675977731E+03  0.00000000000E+00 0.  1.
         21   -1    0    0  503  504 -0.00000000000E+00 -0.00000000000E+00 -0.30998278020E+03  0.30998278020E+03  0.00000000000E+00 0.  1.
         -6    2    1    2    0  504 -0.13072699300E+03  0.31515021804E+02 -0.22914198511E+03  0.31653286731E+03  0.17205889529E+03 0.  0.
        -24    2    3    3    0    0 -0.11455978987E+03  0.13015352895E+02 -0.24788077136E+03  0.28527829457E+03  0.81519836107E+02 0.  0.
          6    2    1    2  502    0  0.13072699300E+03 -0.31515021804E+02  0.28591898222E+03  0.36020969021E+03  0.17296997781E+03 0.  0.
         24    2    5    5    0    0  0.13148278633E+03 -0.32584671863E+01  0.29261558677E+03  0.33078285526E+03  0.80592028160E+02 0.  0.
          4    1    6    6  501    0  0.96699113170E+02  0.31864575107E+02  0.16446689671E+03  0.19343068461E+03  0.00000000000E+00 0. -1.
         -3    1    6    6    0  501  0.34783673164E+02 -0.35123042293E+02  0.12814869006E+03  0.13735217065E+03  0.00000000000E+00 0.  1.
          5    1    5    5  502    0 -0.75579333174E+00 -0.28256554618E+02 -0.66966045478E+01  0.29426834945E+02  0.47000000000E+01 0. -1.
         11    1    4    4    0    0 -0.68414772455E+02  0.46575774641E+02 -0.12670402909E+03  0.15133999756E+03  0.00000000000E+00 0. -1.
        -12    1    4    4    0    0 -0.46145017413E+02 -0.33560421746E+02 -0.12117674227E+03  0.13393829702E+03  0.00000000000E+00 0.  1.
         -5    1    3    3    0  504 -0.16167203134E+02  0.18499668908E+02  0.18738786247E+02  0.31254572736E+02  0.47000000000E+01 0.  1.
<mgrwt>
<rscale>  2 0.21891225E+03</rscale>
<asrwt>0</asrwt>
<pdfrwt beam="1">  1       21 0.56424581E-01 0.21909212E+03</pdfrwt>
<pdfrwt beam="2">  1       21 0.47689659E-01 0.21909212E+03</pdfrwt>
<totfact> 0.12211734E+04</totfact>
</mgrwt>
</event>
<event>
12    1  0.2791583E-001  0.2262025E+03  0.7546771E-02  0.1129574E+00
         21   -1    0    0  502  503  0.00000000000E+00  0.00000000000E+00  0.47452738456E+02  0.47452738456E+02  0.00000000000E+00 0.  1.
         21   -1    0    0  503  504 -0.00000000000E+00 -0.00000000000E+00 -0.11387053822E+04  0.11387053822E+04  0.00000000000E+00 0. -1.
         -6    2    1    2    0  504  0.76942918173E+02  0.12196958162E+03 -0.68753306516E+03  0.72338704574E+03  0.17259869858E+03 0.  0.
        -24    2    3    3    0    0  0.42523035301E+02  0.14680369697E+03 -0.44277913262E+03  0.47493576456E+03  0.78428860774E+02 0.  0.
          6    2    1    2  502    0 -0.76942918173E+02 -0.12196958162E+03 -0.40371957861E+03  0.46277107495E+03  0.17427213821E+03 0.  0.
         24    2    5    5    0    0 -0.23070702313E+02  0.45319321565E+01 -0.94616944671E+02  0.12443488572E+03  0.77323210302E+02 0.  0.
          2    1    6    6  501    0  0.11863036916E+01  0.17744630904E+02 -0.95159930240E+02  0.96807497466E+02  0.00000000000E+00 0. -1.
         -1    1    6    6    0  501 -0.24257006004E+02 -0.13212698748E+02  0.54298556932E+00  0.27627388255E+02  0.00000000000E+00 0.  1.
          5    1    5    5  502    0 -0.53872215861E+02 -0.12650151378E+03 -0.30910263394E+03  0.33833618923E+03  0.47000000000E+01 0. -1.
         13    1    4    4    0    0  0.57186981314E+01  0.35476781192E+02 -0.22260311879E+03  0.22548493077E+03  0.00000000000E+00 0. -1.
        -14    1    4    4    0    0  0.36804337170E+02  0.11132691578E+03 -0.22017601383E+03  0.24945083379E+03  0.00000000000E+00 0.  1.
         -5    1    3    3    0  504  0.34419882872E+02 -0.24834115349E+02 -0.24475393254E+03  0.24845128118E+03  0.47000000000E+01 0.  1.
<mgrwt>
<rscale>  2 0.22588013E+03</rscale>
<asrwt>0</asrwt>
<pdfrwt beam="1">  1       21 0.73004203E-02 0.22620250E+03</pdfrwt>
<pdfrwt beam="2">  1       21 0.17518547E+00 0.22620250E+03</pdfrwt>
<totfact> 0.27023048E+04</totfact>
</mgrwt>
</event>
<event>
12    1  0.2791583E-001  0.1895534E+03  0.7546771E-02  0.1159003E+00
         21   -1    0    0  502  503  0.00000000000E+00  0.00000000000E+00  0.28398587018E+03  0.28398587018E+03  0.00000000000E+00 0.  1.
         21   -1    0    0  503  504 -0.00000000000E+00 -0.00000000000E+00 -0.27201177552E+03  0.27201177552E+03  0.00000000000E+00 0.  1.
         -6    2    1    2    0  504 -0.44894752006E+02  0.62207619941E+02 -0.19760516321E+03  0.27382162968E+03  0.17333539054E+03 0.  0.
        -24    2    3    3    0    0 -0.35194721635E+02  0.35726741049E+02 -0.23480118863E+02  0.97364981730E+02  0.80084675366E+02 0.  0.
          6    2    1    2  502    0  0.44894752006E+02 -0.62207619941E+02  0.20957925786E+03  0.28217601602E+03  0.17266879265E+03 0.  0.
         24    2    5    5    0    0  0.31125412928E+01  0.15999960213E+02  0.45418050927E+02  0.95539549626E+02  0.82457986591E+02 0.  0.
          2    1    6    6  501    0 -0.11112925684E+02  0.43932668286E+02  0.68367535748E+01  0.45829222767E+02  0.00000000000E+00 0. -1.
         -1    1    6    6    0  501  0.14225466977E+02 -0.27932708073E+02  0.38581297352E+02  0.49710326859E+02  0.00000000000E+00 0.  1.
          5    1    5    5  502    0  0.41782210713E+02 -0.78207580154E+02  0.16416120694E+03  0.18663646640E+03  0.47000000000E+01 0. -1.
         11    1    4    4    0    0 -0.47479121614E+02  0.52403456649E+02 -0.28186844186E+02  0.76124158079E+02  0.00000000000E+00 0. -1.
        -12    1    4    4    0    0  0.12284399979E+02 -0.16676715601E+02  0.47067253235E+01  0.21240823651E+02  0.00000000000E+00 0.  1.
         -5    1    3    3    0  504 -0.97000303706E+01  0.26480878892E+02 -0.17412504434E+03  0.17645664795E+03  0.47000000000E+01 0.  1.
<mgrwt>
<rscale>  2 0.18940085E+03</rscale>
<asrwt>0</asrwt>
<pdfrwt beam="1">  1       21 0.43690134E-01 0.18955338E+03</pdfrwt>
<pdfrwt beam="2">  1       21 0.41847965E-01 0.18955338E+03</pdfrwt>
<totfact> 0.27719559E+04</totfact>
</mgrwt>
</event>
<event>
12    1  0.2791583E-001  0.2492822E+03  0.7546771E-02  0.1113777E+00
         21   -1    0    0  502  503  0.00000000000E+00  0.00000000000E+00  0.89852636763E+02  0.89852636763E+02  0.00000000000E+00 0.  1.
         21   -1    0    0  503  504 -0.00000000000E+00 -0.00000000000E+00 -0.11192106602E+04  0.11192106602E+04  0.00000000000E+00 0.  1.
         -6    2    1    2    0  504  0.17328953591E+03  0.62060095310E+02 -0.88855526626E+03  0.92286081207E+03  0.16810978129E+03 0.  0.
        -24    2    3    3    0    0  0.18495092831E+03  0.17607778044E+02 -0.69365900854E+03  0.72256443702E+03  0.80122816902E+02 0.  0.
          6    2    1    2  502    0 -0.17328953591E+03 -0.62060095310E+02 -0.14080275717E+03  0.28620248489E+03  0.16794560799E+03 0.  0.
         24    2    5    5    0    0 -0.19292787286E+03 -0.32341314629E+02 -0.13124826757E+03  0.24902388251E+03  0.80744421243E+02 0.  0.
          2    1    6    6  501    0 -0.24061548018E+02  0.16110603842E+02  0.12441383523E+01  0.28983745952E+02  0.00000000000E+00 0. -1.
         -1    1    6    6    0  501 -0.16886632484E+03 -0.48451918471E+02 -0.13249240592E+03  0.22004013656E+03  0.00000000000E+00 0.  1.
          5    1    5    5  502    0  0.19638336950E+02 -0.29718780681E+02 -0.95544895997E+01  0.37178602379E+02  0.47000000000E+01 0. -1.
         13    1    4    4    0    0  0.62285729828E+02 -0.27288691232E+02 -0.30687508727E+03  0.31431911172E+03  0.00000000000E+00 0. -1.
        -14    1    4    4    0    0  0.12266519848E+03  0.44896469276E+02 -0.38678392127E+03  0.40824532530E+03  0.00000000000E+00 0.  1.
         -5    1    3    3    0  504 -0.11661392403E+02  0.44452317266E+02 -0.19489625772E+03  0.20029637505E+03  0.47000000000E+01 0.  1.
<mgrwt>
<rscale>  2 0.24925453E+03</rscale>
<asrwt>0</asrwt>
<pdfrwt beam="1">  1       21 0.13823483E-01 0.24928220E+03</pdfrwt>
<pdfrwt beam="2">  1       21 0.17218625E+00 0.24928220E+03</pdfrwt>
<totfact> 0.89950142E+03</totfact>
</mgrwt>
</event>
<event>
12    1  0.2791583E-001  0.2155610E+03  0.7546771E-02  0.1137344E+00
         21   -1    0    0  502  503  0.00000000000E+00  0.00000000000E+00  0.98342179813E+02  0.98342179813E+02  0.00000000000E+00 0. -1.
         21   -1    0    0  503  504 -0.00000000000E+00 -0.00000000000E+00 -0.52720415385E+03  0.52720415385E+03  0.00000000000E+00 0.  1.
         -6    2    1    2    0  504  0.10127766060E+03 -0.79376566459E+02 -0.31655309551E+03  0.38297833822E+03  0.17294143930E+03 0.  0.
        -24    2    3    3    0    0  0.47648848673E+02 -0.54035020613E+01 -0.25847567301E+03  0.27461256535E+03  0.79390030187E+02 0.  0.
          6    2    1    2  502    0 -0.10127766060E+03  0.79376566459E+02 -0.11230887852E+03  0.24256799544E+03  0.17224443207E+03 0.  0.
         24    2    5    5    0    0 -0.13482373013E+03  0.38703942602E+02 -0.80185114838E+02  0.18065170271E+03  0.80808116370E+02 0.  0.
          4    1    6    6  501    0 -0.98478651102E+02  0.35440359639E+02 -0.14704554316E+02  0.10568958195E+03  0.00000000000E+00 0. -1.
         -3    1    6    6    0  501 -0.36345079031E+02  0.32635829627E+01 -0.65480560523E+02  0.74962120767E+02  0.00000000000E+00 0.  1.
          5    1    5    5  502    0  0.33546069529E+02  0.40672623857E+02 -0.32123763684E+02  0.61916292730E+02  0.47000000000E+01 0. -1.
         13    1    4    4    0    0 -0.19038945067E+02  0.13454792549E+02 -0.71624503319E+02  0.75323185989E+02  0.00000000000E+00 0. -1.
        -14    1    4    4    0    0  0.66687793740E+02 -0.18858294610E+02 -0.18685116970E+03  0.19928937936E+03  0.00000000000E+00 0.  1.
         -5    1    3    3    0  504  0.53628811932E+02 -0.73973064397E+02 -0.58077422498E+02  0.10836577287E+03  0.47000000000E+01 0.  1.
<mgrwt>
<rscale>  2 0.21542117E+03</rscale>
<asrwt>0</asrwt>
<pdfrwt beam="1">  1       21 0.15129566E-01 0.21556100E+03</pdfrwt>
<pdfrwt beam="2">  1       21 0.81108334E-01 0.21556100E+03</pdfrwt>
<totfact> 0.50913206E+04</totfact>
</mgrwt>
</event>
<event>
12    1  0.2791583E-001  0.1890444E+03  0.7546771E-02  0.1159756E+00
         21   -1    0    0  502  503  0.00000000000E+00  0.00000000000E+00  0.10985035689E+03  0.10985035689E+03  0.00000000000E+00 0. -1.
         21   -1    0    0  503  504 -0.00000000000E+00 -0.00000000000E+00 -0.11548444724E+04  0.11548444724E+04  0.00000000000E+00 0. -1.
         -6    2    1    2    0  504  0.58364120742E+02 -0.41272266118E+02 -0.10601942242E+04  0.10769167032E+04  0.17500863412E+03 0.  0.
        -24    2    3    3    0    0  0.10802268868E+03 -0.30468996528E+02 -0.78256170229E+03  0.79463211056E+03  0.80250309858E+02 0.  0.
          6    2    1    2  502    0 -0.58364120742E+02  0.41272266118E+02  0.15200108715E+02  0.18777812608E+03  0.17297343955E+03 0.  0.
         24    2    5    5    0    0 -0.61947449566E+02 -0.20695705781E+01 -0.46888398100E+02  0.11182795997E+03  0.80406474400E+02 0.  0.
          4    1    6    6  501    0 -0.43855188533E+02  0.23208672074E+02 -0.60199528640E+02  0.78012199490E+02  0.00000000000E+00 0. -1.
         -3    1    6    6    0  501 -0.18092261033E+02 -0.25278242652E+02  0.13311130540E+02  0.33815760484E+02  0.00000000000E+00 0.  1.
          5    1    5    5  502    0  0.35833288238E+01  0.43341836696E+02  0.62088506815E+02  0.75950166110E+02  0.47000000000E+01 0. -1.
         11    1    4    4    0    0  0.40149160020E+02 -0.48984793118E+02 -0.47013197395E+03  0.47437910782E+03  0.00000000000E+00 0. -1.
        -12    1    4    4    0    0  0.67873528664E+02  0.18515796590E+02 -0.31242972833E+03  0.32025300274E+03  0.00000000000E+00 0.  1.
         -5    1    3    3    0  504 -0.49658567941E+02 -0.10803269590E+02 -0.27763252193E+03  0.28228459263E+03  0.47000000000E+01 0.  1.
<mgrwt>
<rscale>  2 0.18857202E+03</rscale>
<asrwt>0</asrwt>
<pdfrwt beam="1">  1       21 0.16900055E-01 0.18904442E+03</pdfrwt>
<pdfrwt beam="2">  1       21 0.17766838E+00 0.18904442E+03</pdfrwt>
<totfact> 0.59716746E+03</totfact>
</mgrwt>
</event>
<event>
12    1  0.2791583E-001  0.2085308E+03  0.7546771E-02  0.1143125E+00
         21   -1    0    0  502  503  0.00000000000E+00  0.00000000000E+00  0.11443157511E+04  0.11443157511E+04  0.00000000000E+00 0. -1.
         21   -1    0    0  503  504 -0.00000000000E+00 -0.00000000000E+00 -0.39646144834E+02  0.39646144834E+02  0.00000000000E+00 0. -1.
         -6    2    1    2    0  504 -0.63641030818E+02  0.98025368041E+02  0.68278028327E+03  0.71334984663E+03  0.17035238445E+03 0.  0.
        -24    2    3    3    0    0  0.90194894126E+01  0.76778798234E+02  0.32751190744E+03  0.35007491385E+03  0.96499019374E+02 0.  0.
          6    2    1    2  502    0  0.63641030818E+02 -0.98025368041E+02  0.42188932297E+03  0.47061204927E+03  0.17270190069E+03 0.  0.
         24    2    5    5    0    0  0.39436954871E+01 -0.45786951548E+02  0.35457993230E+03  0.36647143243E+03  0.80388959025E+02 0.  0.
          4    1    6    6  501    0  0.40127885397E+01  0.74182240936E+01  0.23992353685E+03  0.24007173106E+03  0.00000000000E+00 0. -1.
         -3    1    6    6    0  501 -0.69093052631E-01 -0.53205175641E+02  0.11465639545E+03  0.12639970137E+03  0.00000000000E+00 0.  1.
          5    1    5    5  502    0  0.59697335331E+02 -0.52238416493E+02  0.67309390667E+02  0.10414061684E+03  0.47000000000E+01 0. -1.
         13    1    4    4    0    0 -0.10914470095E+02  0.27124198677E+02  0.26978406869E+03  0.27136376238E+03  0.00000000000E+00 0. -1.
        -14    1    4    4    0    0  0.19933959507E+02  0.49654599558E+02  0.57727838752E+02  0.78711151471E+02  0.00000000000E+00 0.  1.
         -5    1    3    3    0  504 -0.72660520231E+02  0.21246569807E+02  0.35526837582E+03  0.36327493278E+03  0.47000000000E+01 0.  1.
<mgrwt>
<rscale>  2 0.20804370E+03</rscale>
<asrwt>0</asrwt>
<pdfrwt beam="1">  1       21 0.17604855E+00 0.20853081E+03</pdfrwt>
<pdfrwt beam="2">  1       21 0.60994078E-02 0.20853081E+03</pdfrwt>
<totfact> 0.36752621E+04</totfact>
</mgrwt>
</event>
<event>
12    1  0.2791583E-001  0.2149581E+03  0.7546771E-02  0.1137820E+00
         21   -1    0    0  502  503  0.00000000000E+00  0.00000000000E+00  0.18664140948E+04  0.18664140948E+04  0.00000000000E+00 0. -1.
         21   -1    0    0  503  504 -0.00000000000E+00 -0.00000000000E+00 -0.26298804435E+02  0.26298804435E+02  0.00000000000E+00 0. -1.
         -6    2    1    2    0  504 -0.11674252703E+03  0.51082537906E+02  0.68431220844E+03  0.71709061613E+03  0.17232965451E+03 0.  0.
        -24    2    3    3    0    0 -0.28435341901E+02  0.85246639447E+02  0.39514945333E+03  0.41278397190E+03  0.78561815049E+02 0.  0.
          6    2    1    2  502    0  0.11674252703E+03 -0.51082537906E+02  0.11558030820E+04  0.11756222832E+04  0.17311483198E+03 0.  0.
         24    2    5    5    0    0  0.50546888415E+01 -0.94305304998E+01  0.17330530245E+03  0.18590866817E+03  0.66429061848E+02 0.  0.
          2    1    6    6  501    0 -0.28950443137E+02 -0.14119063131E+02  0.70136709474E+02  0.77179233719E+02  0.00000000000E+00 0. -1.
         -1    1    6    6    0  501  0.34005131979E+02  0.46885326310E+01  0.10316859298E+03  0.10872943445E+03  0.00000000000E+00 0.  1.
          5    1    5    5  502    0  0.11168783819E+03 -0.41652007406E+02  0.98249777952E+03  0.98971361499E+03  0.47000000000E+01 0. -1.
         13    1    4    4    0    0 -0.46324023454E+02  0.64579353039E+02  0.19192685905E+03  0.20773138234E+03  0.00000000000E+00 0. -1.
        -14    1    4    4    0    0  0.17888681552E+02  0.20667286408E+02  0.20322259428E+03  0.20505258955E+03  0.00000000000E+00 0.  1.
         -5    1    3    3    0  504 -0.88307185130E+02 -0.34164101541E+02  0.28916275511E+03  0.30430664423E+03  0.47000000000E+01 0.  1.
<mgrwt>
<rscale>  2 0.21479998E+03</rscale>
<asrwt>0</asrwt>
<pdfrwt beam="1">  1       21 0.28714053E+00 0.21495811E+03</pdfrwt>
<pdfrwt beam="2">  1       21 0.40459714E-02 0.21495811E+03</pdfrwt>
<totfact> 0.15232074E+04</totfact>
</mgrwt>
</event>
<event>
12    1  0.2791583E-001  0.2330706E+03  0.7546771E-02  0.1126250E+00
         21   -1    0    0  502  503  0.00000000000E+00  0.00000000000E+00  0.30925906791E+03  0.30925906791E+03  0.00000000000E+00 0. -1.
         21   -1    0    0  503  504 -0.00000000000E+00 -0.00000000000E+00 -0.21851081283E+03  0.21851081283E+03  0.00000000000E+00 0. -1.
         -6    2    1    2    0  504  0.14823809443E+03 -0.51976574210E+02 -0.81895736747E+02  0.23772188591E+03  0.15852030292E+03 0.  0.
        -24    2    3    3    0    0  0.21836518295E+02 -0.41183467494E+02 -0.14263452975E+02  0.93881469443E+02  0.80233239296E+02 0.  0.
          6    2    1    2  502    0 -0.14823809443E+03  0.51976574210E+02  0.17264399182E+03  0.29004799483E+03  0.17217954142E+03 0.  0.
         24    2    5    5    0    0 -0.54946606524E+01  0.17090937997E+02  0.38026864243E+02  0.90707691481E+02  0.80371334644E+02 0.  0.
          4    1    6    6  501    0 -0.22630574725E+02  0.30216700045E+02 -0.91347018858E+01  0.38841146385E+02  0.00000000000E+00 0. -1.
         -3    1    6    6    0  501  0.17135914072E+02 -0.13125762049E+02  0.47161566129E+02  0.51866545096E+02  0.00000000000E+00 0.  1.
          5    1    5    5  502    0 -0.14274343378E+03  0.34885636213E+02  0.13461712758E+03  0.19934030335E+03  0.47000000000E+01 0. -1.
         13    1    4    4    0    0  0.27649077454E+02  0.45714656863E+01 -0.33700698288E+02  0.43830432894E+02  0.00000000000E+00 0. -1.
        -14    1    4    4    0    0 -0.58125591591E+01 -0.45754933180E+02  0.19437245313E+02  0.50051036549E+02  0.00000000000E+00 0.  1.
         -5    1    3    3    0  504  0.12640157614E+03 -0.10793106716E+02 -0.67632283772E+02  0.14384041647E+03  0.47000000000E+01 0.  1.
<mgrwt>
<rscale>  2 0.23055496E+03</rscale>
<asrwt>0</asrwt>
<pdfrwt beam="1">  1       21 0.47578318E-01 0.23307057E+03</pdfrwt>
<pdfrwt beam="2">  1       21 0.33617048E-01 0.23307057E+03</pdfrwt>
<totfact> 0.35284362E+04</totfact>
</mgrwt>
</event>
<event>
12    1  0.2791583E-001  0.1805403E+03  0.7546771E-02  0.1167528E+00
         21   -1    0    0  502  503  0.00000000000E+00  0.00000000000E+00  0.13311931711E+03  0.13311931711E+03  0.00000000000E+00 0.  1.
         21   -1    0    0  503  504 -0.00000000000E+00 -0.00000000000E+00 -0.41677505492E+03  0.41677505492E+03  0.00000000000E+00 0.  1.
         -6    2    1    2    0  504  0.19828101667E+02 -0.46984590759E+02 -0.31935955406E+03  0.36685870583E+03  0.17318799003E+03 0.  0.
        -24    2    3    3    0    0  0.60397437705E+02 -0.23281328271E+01 -0.10457223085E+03  0.14370908232E+03  0.77869623042E+02 0.  0.
          6    2    1    2  502    0 -0.19828101667E+02  0.46984590759E+02  0.35703816249E+02  0.18303566620E+03  0.17212375554E+03 0.  0.
         24    2    5    5    0    0 -0.81653828706E+01  0.80155140789E+01  0.85241651574E+02  0.11876518249E+03  0.81903036975E+02 0.  0.
          4    1    6    6  501    0  0.32294667627E+02 -0.11683634333E+01  0.65025157325E+02  0.72612545165E+02  0.00000000000E+00 0. -1.
         -3    1    6    6    0  501 -0.40460050497E+02  0.91838775123E+01  0.20216494249E+02  0.46152637326E+02  0.00000000000E+00 0.  1.
          5    1    5    5  502    0 -0.11662718797E+02  0.38969076680E+02 -0.49537835325E+02  0.64270483705E+02  0.47000000000E+01 0. -1.
         11    1    4    4    0    0  0.23388919263E+02  0.19039562097E+02  0.62293239522E+00  0.30165120817E+02  0.00000000000E+00 0. -1.
        -12    1    4    4    0    0  0.37008518442E+02 -0.21367694924E+02 -0.10519516325E+03  0.11354396151E+03  0.00000000000E+00 0.  1.
         -5    1    3    3    0  504 -0.40569336038E+02 -0.44656457932E+02 -0.21478732321E+03  0.22314962351E+03  0.47000000000E+01 0.  1.
<mgrwt>
<rscale>  2 0.18028456E+03</rscale>
<asrwt>0</asrwt>
<pdfrwt beam="1">  1       21 0.20479895E-01 0.18054026E+03</pdfrwt>
<pdfrwt beam="2">  1       21 0.64119239E-01 0.18054026E+03</pdfrwt>
<totfact> 0.49862721E+04</totfact>
</mgrwt>
</event>
<event>
12    1  0.2791583E-001  0.1893487E+03  0.7546771E-02  0.1159348E+00
         21   -1    0    0  502  503  0.00000000000E+00  0.00000000000E+00  0.11621401143E+04  0.11621401143E+04  0.00000000000E+00 0. -1.
         21   -1    0    0  503  504 -0.00000000000E+00 -0.00000000000E+00 -0.37785497856E+02  0.37785497856E+02  0.00000000000E+00 0. -1.
         -6    2    1    2    0  504  0.48987357690E+02  0.58729210333E+02  0.30281392649E+03  0.35714029668E+03  0.17321673151E+03 0.  0.
        -24    2    3    3    0    0  0.16390664082E+02  0.53570056093E+02  0.65567652711E+02  0.11756349119E+03  0.79897763419E+02 0.  0.
          6    2    1    2  502    0 -0.48987357690E+02 -0.58729210333E+02  0.82154068995E+03  0.84278531547E+03  0.17178213346E+03 0.  0.
         24    2    5    5    0    0 -0.71240388484E+02 -0.54834328828E+02  0.34943874862E+03  0.37011978839E+03  0.82457396003E+02 0.  0.
          2    1    6    6  501    0 -0.88605989931E+02 -0.50736179596E+02  0.26899925064E+03  0.28772517828E+03  0.00000000000E+00 0. -1.
         -1    1    6    6    0  501  0.17365601448E+02 -0.40981492320E+01  0.80439497975E+02  0.82394610110E+02  0.00000000000E+00 0.  1.
          5    1    5    5  502    0  0.22253030794E+02 -0.38948815048E+01  0.47210194133E+03  0.47266552708E+03  0.47000000000E+01 0. -1.
         11    1    4    4    0    0  0.18414669901E+02  0.73807027691E+02  0.58743270987E+02  0.96111129898E+02  0.00000000000E+00 0. -1.
        -12    1    4    4    0    0 -0.20240058194E+01 -0.20236971597E+02  0.68243817246E+01  0.21452361290E+02  0.00000000000E+00 0.  1.
         -5    1    3    3    0  504  0.32596693608E+02  0.51591542394E+01  0.23724627378E+03  0.23957680549E+03  0.47000000000E+01 0.  1.
<mgrwt>
<rscale>  2 0.18901994E+03</rscale>
<asrwt>0</asrwt>
<pdfrwt beam="1">  1       21 0.17879076E+00 0.18934867E+03</pdfrwt>
<pdfrwt beam="2">  1       21 0.58131544E-02 0.18934867E+03</pdfrwt>
<totfact> 0.38681021E+04</totfact>
</mgrwt>
</event>
<event>
12    1  0.2791583E-001  0.1840062E+03  0.7546771E-02  0.1164906E+00
         21   -1    0    0  502  503  0.00000000000E+00  0.00000000000E+00  0.15648954216E+03  0.15648954216E+03  0.00000000000E+00 0.  1.
         21   -1    0    0  503  504 -0.00000000000E+00 -0.00000000000E+00 -0.25715689285E+03  0.25715689285E+03  0.00000000000E+00 0.  1.
         -6    2    1    2    0  504  0.79846810842E+01 -0.58609852013E+02 -0.13762127563E+03  0.22977790787E+03  0.17423949481E+03 0.  0.
        -24    2    3    3    0    0  0.56028431789E+02 -0.54316768838E+01 -0.35116237347E+02  0.10461604001E+03  0.80886818578E+02 0.  0.
          6    2    1    2  502    0 -0.79846810842E+01  0.58609852013E+02  0.36953924940E+02  0.18386852714E+03  0.17012693150E+03 0.  0.
         24    2    5    5    0    0 -0.61028322703E+02  0.45820418617E+02  0.57738536085E+02  0.12529133377E+03  0.80871582369E+02 0.  0.
          4    1    6    6  501    0 -0.26897449760E+02  0.63123504073E+02  0.19821251517E+02  0.71420806364E+02  0.00000000000E+00 0. -1.
         -3    1    6    6    0  501 -0.34130872943E+02 -0.17303085456E+02  0.37917284569E+02  0.53870527408E+02  0.00000000000E+00 0.  1.
          5    1    5    5  502    0  0.53043641618E+02  0.12789433396E+02 -0.20784611145E+02  0.58577193371E+02  0.47000000000E+01 0. -1.
         13    1    4    4    0    0  0.78814757168E+01 -0.41152140651E+01  0.25608977518E+02  0.27108529577E+02  0.00000000000E+00 0. -1.
        -14    1    4    4    0    0  0.48146956073E+02 -0.13164628187E+01 -0.60725214865E+02  0.77507510435E+02  0.00000000000E+00 0.  1.
         -5    1    3    3    0  504 -0.48043750705E+02 -0.53178175129E+02 -0.10250503828E+03  0.12516186786E+03  0.47000000000E+01 0.  1.
<mgrwt>
<rscale>  2 0.18302601E+03</rscale>
<asrwt>0</asrwt>
<pdfrwt beam="1">  1       21 0.24075314E-01 0.18400617E+03</pdfrwt>
<pdfrwt beam="2">  1       21 0.39562598E-01 0.18400617E+03</pdfrwt>
<totfact> 0.10055495E+05</totfact>
</mgrwt>
</event>
<event>
12    1  0.2791583E-001  0.2119855E+03  0.7546771E-02  0.1140074E+00
         21   -1    0    0  502  503  0.00000000000E+00  0.00000000000E+00  0.44236503284E+03  0.44236503284E+03  0.00000000000E+00 0.  1.
         21   -1    0    0  503  504 -0.00000000000E+00 -0.00000000000E+00 -0.10312373397E+03  0.10312373397E+03  0.00000000000E+00 0.  1.
         -6    2    1    2    0  504 -0.10361469283E+03  0.64856659874E+02  0.20460855973E+03  0.29436360557E+03  0.17275091510E+03 0.  0.
        -24    2    3    3    0    0 -0.57283394525E+02 -0.23199156499E+02  0.12429840193E+03  0.16640960037E+03  0.91774038940E+02 0.  0.
          6    2    1    2  502    0  0.10361469283E+03 -0.64856659874E+02  0.13463273913E+03  0.25112516124E+03  0.17319203579E+03 0.  0.
         24    2    5    5    0    0  0.64339727251E+02 -0.47556542174E+02  0.56946849797E+01  0.11515116078E+03  0.82620428376E+02 0.  0.
          4    1    6    6  501    0  0.80041523328E+01 -0.45990941987E+02 -0.22852971765E+02  0.51975874383E+02  0.00000000000E+00 0. -1.
         -3    1    6    6    0  501  0.56335574918E+02 -0.15656001876E+01  0.28547656745E+02  0.63175286394E+02  0.00000000000E+00 0.  1.
          5    1    5    5  502    0  0.39274965578E+02 -0.17300117700E+02  0.12893805415E+03  0.13597400046E+03  0.47000000000E+01 0. -1.
         13    1    4    4    0    0 -0.77528151062E+02 -0.37213316669E+02  0.98087466950E+02  0.13044767655E+03  0.00000000000E+00 0. -1.
        -14    1    4    4    0    0  0.20244756537E+02  0.14014160170E+02  0.26210934982E+02  0.35961923824E+02  0.00000000000E+00 0.  1.
         -5    1    3    3    0  504 -0.46331298305E+02  0.88055816373E+02  0.80310157803E+02  0.12795400520E+03  0.47000000000E+01 0.  1.
<mgrwt>
<rscale>  2 0.21189543E+03</rscale>
<asrwt>0</asrwt>
<pdfrwt beam="1">  1       21 0.68056158E-01 0.21198555E+03</pdfrwt>
<pdfrwt beam="2">  1       21 0.15865190E-01 0.21198555E+03</pdfrwt>
<totfact> 0.69203859E+04</totfact>
</mgrwt>
</event>
<event>
12    1  0.2791583E-001  0.2388336E+03  0.7546771E-02  0.1120576E+00
         21   -1    0    0  502  503  0.00000000000E+00  0.00000000000E+00  0.66944201590E+02  0.66944201590E+02  0.00000000000E+00 0.  1.
         21   -1    0    0  503  504 -0.00000000000E+00 -0.00000000000E+00 -0.85474254985E+03  0.85474254985E+03  0.00000000000E+00 0.  1.
         -6    2    1    2    0  504 -0.51208471576E+02  0.15746535977E+03 -0.42007516264E+03  0.48322317707E+03  0.17211580259E+03 0.  0.
        -24    2    3    3    0    0  0.39857801012E+01  0.84053447975E+02 -0.34613722403E+03  0.36522053736E+03  0.80586565228E+02 0.  0.
          6    2    1    2  502    0  0.51208471576E+02 -0.15746535977E+03 -0.36772318562E+03  0.43846357437E+03  0.17208229925E+03 0.  0.
         24    2    5    5    0    0  0.58590977657E+01 -0.51223152938E+02 -0.69547610502E+02  0.11865935955E+03  0.81148216610E+02 0.  0.
          4    1    6    6  501    0 -0.24957672416E+02 -0.39935895570E+02 -0.71686065984E+02  0.85770934609E+02  0.00000000000E+00 0. -1.
         -3    1    6    6    0  501  0.30816770182E+02 -0.11287257368E+02  0.21384554822E+01  0.32888424942E+02  0.00000000000E+00 0.  1.
          5    1    5    5  502    0  0.45349373810E+02 -0.10624220684E+03 -0.29817557512E+03  0.31980421482E+03  0.47000000000E+01 0. -1.
         11    1    4    4    0    0 -0.57145152287E+01  0.89259435628E+02 -0.34193063816E+03  0.35343523289E+03  0.00000000000E+00 0. -1.
        -12    1    4    4    0    0  0.97002953298E+01 -0.52059876529E+01 -0.42065858649E+01  0.11785304475E+02  0.00000000000E+00 0.  1.
         -5    1    3    3    0  504 -0.55194251677E+02  0.73411911799E+02 -0.73937938616E+02  0.11800263971E+03  0.47000000000E+01 0.  1.
<mgrwt>
<rscale>  2 0.23882758E+03</rscale>
<asrwt>0</asrwt>
<pdfrwt beam="1">  1       21 0.10299108E-01 0.23883362E+03</pdfrwt>
<pdfrwt beam="2">  1       21 0.13149885E+00 0.23883362E+03</pdfrwt>
<totfact> 0.31522317E+04</totfact>
</mgrwt>
</event>
<event>
12    1  0.2791583E-001  0.1889207E+03  0.7546771E-02  0.1159822E+00
         21   -1    0    0  502  503  0.00000000000E+00  0.00000000000E+00  0.62855537105E+03  0.62855537105E+03  0.00000000000E+00 0. -1.
         21   -1    0    0  503  504 -0.00000000000E+00 -0.00000000000E+00 -0.73940507246E+02  0.73940507246E+02  0.00000000000E+00 0. -1.
         -6    2    1    2    0  504  0.20125020292E+02 -0.71085299606E+02  0.10658451706E+03  0.21691312421E+03  0.17387612809E+03 0.  0.
        -24    2    3    3    0    0  0.37211026216E+02  0.25045024503E+02  0.50646228720E+02  0.10428917954E+03  0.79367995825E+02 0.  0.
          6    2    1    2  502    0 -0.20125020292E+02  0.71085299606E+02  0.44803034675E+03  0.48558275408E+03  0.17205023450E+03 0.  0.
         24    2    5    5    0    0 -0.62425276003E+02  0.54963442847E+02  0.18107893550E+03  0.21477955642E+03  0.80142260006E+02 0.  0.
          4    1    6    6  501    0 -0.35207349474E+02 -0.38673905879E+01  0.18944508173E+02  0.40167257274E+02  0.00000000000E+00 0. -1.
         -3    1    6    6    0  501 -0.27217926529E+02  0.58830833435E+02  0.16213442733E+03  0.17461229914E+03  0.00000000000E+00 0.  1.
          5    1    5    5  502    0  0.42300255711E+02  0.16121856759E+02  0.26695141124E+03  0.27080319766E+03  0.47000000000E+01 0. -1.
         13    1    4    4    0    0 -0.11808747651E+02  0.40539321278E+01  0.49396002718E+02  0.50949445250E+02  0.00000000000E+00 0. -1.
        -14    1    4    4    0    0  0.49019773867E+02  0.20991092375E+02  0.12502260016E+01  0.53339734290E+02  0.00000000000E+00 0.  1.
         -5    1    3    3    0  504 -0.17086005924E+02 -0.96130324109E+02  0.55938288337E+02  0.11262394467E+03  0.47000000000E+01 0.  1.
<mgrwt>
<rscale>  2 0.18849955E+03</rscale>
<asrwt>0</asrwt>
<pdfrwt beam="1">  1       21 0.96700823E-01 0.18892074E+03</pdfrwt>
<pdfrwt beam="2">  1       21 0.11375463E-01 0.18892074E+03</pdfrwt>
<totfact> 0.57468040E+04</totfact>
</mgrwt>
</event>
<event>
12    1  0.2791583E-001  0.2069399E+03  0.7546771E-02  0.1144888E+00
         21   -1    0    0  502  503  0.00000000000E+00  0.00000000000E+00  0.16571076957E+03  0.16571076957E+03  0.00000000000E+00 0. -1.
         21   -1    0    0  503  504 -0.00000000000E+00 -0.00000000000E+00 -0.33275060722E+03  0.33275060722E+03  0.00000000000E+00 0. -1.
         -6    2    1    2    0  504  0.10383952419E+03  0.22832243701E+02  0.39083038147E+02  0.20638131585E+03  0.17251610222E+03 0.  0.
        -24    2    3    3    0    0  0.54057728976E+02  0.23136906197E+02  0.90285973831E+02  0.13481211453E+03  0.81025888853E+02 0.  0.
          6    2    1    2  502    0 -0.10383952419E+03 -0.22832243701E+02 -0.20612287580E+03  0.29208006094E+03  0.17753918985E+03 0.  0.
         24    2    5    5    0    0 -0.11984394589E+03  0.21820371735E+02 -0.19351486013E+03  0.24277438542E+03  0.81564092203E+02 0.  0.
          4    1    6    6  501    0 -0.12957214912E+03  0.10222318254E+02 -0.16106314820E+03  0.20696563803E+03  0.00000000000E+00 0. -1.
         -3    1    6    6    0  501  0.97282032270E+01  0.11598053481E+02 -0.32451711928E+02  0.35808747390E+02  0.00000000000E+00 0.  1.
          5    1    5    5  502    0  0.16004421699E+02 -0.44652615437E+02 -0.12608015673E+02  0.49305675520E+02  0.47000000000E+01 0. -1.
         11    1    4    4    0    0  0.22389070116E+02 -0.23403926405E+02  0.65969228825E+02  0.73491178951E+02  0.00000000000E+00 0. -1.
        -12    1    4    4    0    0  0.31668658860E+02  0.46540832601E+02  0.24316745006E+02  0.61320935584E+02  0.00000000000E+00 0.  1.
         -5    1    3    3    0  504  0.49781795217E+02 -0.30466249533E+00 -0.51202935684E+02  0.71569201315E+02  0.47000000000E+01 0.  1.
<mgrwt>
<rscale>  2 0.20585820E+03</rscale>
<asrwt>0</asrwt>
<pdfrwt beam="1">  1       21 0.25493965E-01 0.20693990E+03</pdfrwt>
<pdfrwt beam="2">  1       21 0.51192401E-01 0.20693990E+03</pdfrwt>
<totfact> 0.52564337E+04</totfact>
</mgrwt>
</event>
<event>
12    1  0.2791583E-001  0.1843789E+03  0.7546771E-02  0.1164541E+00
         21   -1    0    0  502  503  0.00000000000E+00  0.00000000000E+00  0.49377934096E+03  0.49377934096E+03  0.00000000000E+00 0.  1.
         21   -1    0    0  503  504 -0.00000000000E+00 -0.00000000000E+00 -0.74383862440E+02  0.74383862440E+02  0.00000000000E+00 0.  1.
         -6    2    1    2    0  504 -0.11908667599E+02 -0.49408119047E+02  0.29459930705E+03  0.34552072517E+03  0.17324214618E+03 0.  0.
        -24    2    3    3    0    0  0.60128265118E+02 -0.33532685363E+02  0.18654846104E+03  0.21460691996E+03  0.80721450217E+02 0.  0.
          6    2    1    2  502    0  0.11908667599E+02  0.49408119047E+02  0.12479617147E+03  0.22264247823E+03  0.17723602938E+03 0.  0.
         24    2    5    5    0    0  0.72589518677E+02  0.33142338565E+02  0.10884742324E+03  0.15765637301E+03  0.81486916599E+02 0.  0.
          2    1    6    6  501    0  0.59353346120E+02  0.32604551761E+02  0.24099713215E+02  0.71879570590E+02  0.00000000000E+00 0. -1.
         -1    1    6    6    0  501  0.13236172557E+02  0.53778680396E+00  0.84747710025E+02  0.85776802419E+02  0.00000000000E+00 0.  1.
          5    1    5    5  502    0 -0.60680851078E+02  0.16265780482E+02  0.15948748229E+02  0.64986105225E+02  0.47000000000E+01 0. -1.
         13    1    4    4    0    0  0.71383058144E+01 -0.49148413157E+02  0.10440373160E+03  0.11561427722E+03  0.00000000000E+00 0. -1.
        -14    1    4    4    0    0  0.52989959304E+02  0.15615727795E+02  0.82144729439E+02  0.98992642737E+02  0.00000000000E+00 0.  1.
         -5    1    3    3    0  504 -0.72036932717E+02 -0.15875433685E+02  0.10805084601E+03  0.13091380521E+03  0.47000000000E+01 0.  1.
<mgrwt>
<rscale>  2 0.18341240E+03</rscale>
<asrwt>0</asrwt>
<pdfrwt beam="1">  1       21 0.75966051E-01 0.18437893E+03</pdfrwt>
<pdfrwt beam="2">  1       21 0.11443671E-01 0.18437893E+03</pdfrwt>
<totfact> 0.99010422E+04</totfact>
</mgrwt>
</event>
<event>
12    1  0.2791583E-001  0.1841971E+03  0.7546771E-02  0.1164103E+00
         21   -1    0    0  502  503  0.00000000000E+00  0.00000000000E+00  0.26620968128E+03  0.26620968128E+03  0.00000000000E+00 0.  1.
         21   -1    0    0  503  504 -0.00000000000E+00 -0.00000000000E+00 -0.16078458790E+03  0.16078458790E+03  0.00000000000E+00 0.  1.
         -6    2    1    2    0  504 -0.44714470144E+02 -0.41391404131E+02 -0.45918986555E+02  0.18859630724E+03  0.17247429259E+03 0.  0.
        -24    2    3    3    0    0 -0.63413787283E+02  0.32048834920E+02 -0.19052058966E+02  0.10805405143E+03  0.79147083599E+02 0.  0.
          6    2    1    2  502    0  0.44714470144E+02  0.41391404131E+02  0.15134407993E+03  0.23839796193E+03  0.17382728654E+03 0.  0.
         24    2    5    5    0    0  0.46634206542E+02  0.86472479360E+02  0.14409704266E+03  0.19245671379E+03  0.81384212671E+02 0.  0.
          4    1    6    6  501    0 -0.17449931554E+02  0.45792823430E+02  0.76302829619E+02  0.90684092303E+02  0.00000000000E+00 0. -1.
         -3    1    6    6    0  501  0.64084138096E+02  0.40679655930E+02  0.67794213042E+02  0.10177262149E+03  0.00000000000E+00 0.  1.
          5    1    5    5  502    0 -0.19197363980E+01 -0.45081075229E+02  0.72470372732E+01  0.45941248142E+02  0.47000000000E+01 0. -1.
         13    1    4    4    0    0  0.16088511510E+02  0.19609070610E+02 -0.20404987339E-01  0.25364468636E+02  0.00000000000E+00 0. -1.
        -14    1    4    4    0    0 -0.79502298793E+02  0.12439764310E+02 -0.19031653979E+02  0.82689582794E+02  0.00000000000E+00 0.  1.
         -5    1    3    3    0  504  0.18699317139E+02 -0.73440239051E+02 -0.26866927589E+02  0.80542255812E+02  0.47000000000E+01 0.  1.
<mgrwt>
<rscale>  2 0.18387716E+03</rscale>
<asrwt>0</asrwt>
<pdfrwt beam="1">  1       21 0.40955335E-01 0.18419706E+03</pdfrwt>
<pdfrwt beam="2">  1       21 0.24736091E-01 0.18419706E+03</pdfrwt>
<totfact> 0.89053452E+04</totfact>
</mgrwt>
</event>
<event>
12    1  0.2791583E-001  0.1870831E+03  0.7546771E-02  0.1161529E+00
         21   -1    0    0  502  503  0.00000000000E+00  0.00000000000E+00  0.20932289614E+03  0.20932289614E+03  0.00000000000E+00 0.  1.
         21   -1    0    0  503  504 -0.00000000000E+00 -0.00000000000E+00 -0.19955977244E+03  0.19955977244E+03  0.00000000000E+00 0.  1.
         -6    2    1    2    0  504 -0.67014958658E+02 -0.13074392965E+02 -0.79404270157E+02  0.20323664063E+03  0.17417849908E+03 0.  0.
        -24    2    3    3    0    0 -0.57546862880E+02 -0.72532490220E+02 -0.29398557800E+02  0.12483019042E+03  0.78394500285E+02 0.  0.
          6    2    1    2  502    0  0.67014958658E+02  0.13074392965E+02  0.89167393850E+02  0.20564602795E+03  0.17227164668E+03 0.  0.
         24    2    5    5    0    0  0.46379437966E+00 -0.10674049481E+02  0.10485472698E+03  0.13311170224E+03  0.81302282039E+02 0.  0.
          2    1    6    6  501    0  0.26151557648E+01 -0.39292133335E+02  0.94882367524E+02  0.10272961817E+03  0.00000000000E+00 0. -1.
         -1    1    6    6    0  501 -0.21513613852E+01  0.28618083855E+02  0.99723594555E+01  0.30382084070E+02  0.00000000000E+00 0.  1.
          5    1    5    5  502    0  0.66551164279E+02  0.23748442446E+02 -0.15687333129E+02  0.72534325709E+02  0.47000000000E+01 0. -1.
         11    1    4    4    0    0  0.18848967220E+02 -0.91035521398E+01  0.10870558947E+01  0.20960436955E+02  0.00000000000E+00 0. -1.
        -12    1    4    4    0    0 -0.76395830100E+02 -0.63428938080E+02 -0.30485613695E+02  0.10386975347E+03  0.00000000000E+00 0.  1.
         -5    1    3    3    0  504 -0.94680957785E+01  0.59458097255E+02 -0.50005712357E+02  0.78406450214E+02  0.47000000000E+01 0.  1.
<mgrwt>
<rscale>  2 0.18663803E+03</rscale>
<asrwt>0</asrwt>
<pdfrwt beam="1">  1       21 0.32203522E-01 0.18708312E+03</pdfrwt>
<pdfrwt beam="2">  1       21 0.30701504E-01 0.18708312E+03</pdfrwt>
<totfact> 0.94688670E+04</totfact>
</mgrwt>
</event>
<event>
12    1  0.2791583E-001  0.2404862E+03  0.7546771E-02  0.1120732E+00
         21   -1    0    0  502  503  0.00000000000E+00  0.00000000000E+00  0.22878006620E+03  0.22878006620E+03  0.00000000000E+00 0. -1.
         21   -1    0    0  503  504 -0.00000000000E+00 -0.00000000000E+00 -0.32565746861E+03  0.32565746861E+03  0.00000000000E+00 0.  1.
         -6    2    1    2    0  504 -0.14838302597E+03  0.78184261178E+02 -0.18581777449E+03  0.29803158302E+03  0.16175375752E+03 0.  0.
        -24    2    3    3    0    0 -0.56564246805E+02  0.69031310615E+02 -0.16111839077E+03  0.20239364982E+03  0.83900046363E+02 0.  0.
          6    2    1    2  502    0  0.14838302597E+03 -0.78184261178E+02  0.88940372079E+02  0.25640595178E+03  0.17234651499E+03 0.  0.
         24    2    5    5    0    0  0.17154603895E+02 -0.76792456017E+02  0.22587099563E+02  0.10927443695E+03  0.72383449543E+02 0.  0.
          4    1    6    6  501    0  0.58009860087E+01  0.67246646111E+01  0.23354001356E+02  0.24985634516E+02  0.00000000000E+00 0. -1.
         -3    1    6    6    0  501  0.11353617886E+02 -0.83517120628E+02 -0.76690179300E+00  0.84288802433E+02  0.00000000000E+00 0.  1.
          5    1    5    5  502    0  0.13122842208E+03 -0.13918051612E+01  0.66353272516E+02  0.14713151483E+03  0.47000000000E+01 0. -1.
         11    1    4    4    0    0 -0.12224568617E+02  0.60299190303E+01  0.85245632795E+01  0.16076945621E+02  0.00000000000E+00 0. -1.
        -12    1    4    4    0    0 -0.44339678188E+02  0.63001391585E+02 -0.16964295405E+03  0.18631670420E+03  0.00000000000E+00 0.  1.
         -5    1    3    3    0  504 -0.91818779168E+02  0.91529505631E+01 -0.24699383715E+02  0.95637933205E+02  0.47000000000E+01 0.  1.
<mgrwt>
<rscale>  2 0.23859548E+03</rscale>
<asrwt>0</asrwt>
<pdfrwt beam="1">  1       21 0.35196933E-01 0.24048622E+03</pdfrwt>
<pdfrwt beam="2">  1       21 0.50101149E-01 0.24048622E+03</pdfrwt>
<totfact> 0.28809560E+04</totfact>
</mgrwt>
</event>
<event>
12    1  0.2791583E-001  0.2011013E+03  0.7546771E-02  0.1148906E+00
         21   -1    0    0  502  503  0.00000000000E+00  0.00000000000E+00  0.73240738763E+02  0.73240738763E+02  0.00000000000E+00 0. -1.
         21   -1    0    0  503  504 -0.00000000000E+00 -0.00000000000E+00 -0.19058359375E+04  0.19058359375E+04  0.00000000000E+00 0. -1.
         -6    2    1    2    0  504 -0.78274428507E+02  0.67391492863E+02 -0.17503392975E+04  0.17618032307E+04  0.17203042646E+03 0.  0.
        -24    2    3    3    0    0 -0.44091562522E+02  0.81035276150E+02 -0.16563062455E+04  0.16607145269E+04  0.78176589799E+02 0.  0.
          6    2    1    2  502    0  0.78274428507E+02 -0.67391492863E+02 -0.82255901174E+02  0.21727344557E+03  0.17254917387E+03 0.  0.
         24    2    5    5    0    0 -0.77105129714E+00 -0.44017738449E+02 -0.96423506304E+02  0.13350393257E+03  0.81164349470E+02 0.  0.
          2    1    6    6  501    0  0.60736489802E+01 -0.34901912088E+02 -0.11012349601E+03  0.11568153290E+03  0.00000000000E+00 0. -1.
         -1    1    6    6    0  501 -0.68447002774E+01 -0.91158263607E+01  0.13699989707E+02  0.17822399673E+02  0.00000000000E+00 0.  1.
          5    1    5    5  502    0  0.79045479804E+02 -0.23373754415E+02  0.14167605130E+02  0.83769512999E+02  0.47000000000E+01 0. -1.
         13    1    4    4    0    0 -0.96520405042E+01  0.55829318608E+02 -0.13771285401E+04  0.13782935429E+04  0.00000000000E+00 0. -1.
        -14    1    4    4    0    0 -0.34439522018E+02  0.25205957542E+02 -0.27917770545E+03  0.28242098398E+03  0.00000000000E+00 0.  1.
         -5    1    3    3    0  504 -0.34182865985E+02 -0.13643783287E+02 -0.94033052034E+02  0.10108870374E+03  0.47000000000E+01 0.  1.
<mgrwt>
<rscale>  2 0.20098994E+03</rscale>
<asrwt>0</asrwt>
<pdfrwt beam="1">  1       21 0.11267807E-01 0.20110126E+03</pdfrwt>
<pdfrwt beam="2">  1       21 0.29320550E+00 0.20110126E+03</pdfrwt>
<totfact> 0.24276888E+03</totfact>
</mgrwt>
</event>
<event>
12    1  0.2791583E-001  0.2132062E+03  0.7546771E-02  0.1139094E+00
         21   -1    0    0  502  503  0.00000000000E+00  0.00000000000E+00  0.12856896231E+04  0.12856896231E+04  0.00000000000E+00 0.  1.
         21   -1    0    0  503  504 -0.00000000000E+00 -0.00000000000E+00 -0.35335766277E+02  0.35335766277E+02  0.00000000000E+00 0.  1.
         -6    2    1    2    0  504 -0.15794350385E+02 -0.12100632822E+03  0.61086456943E+03  0.64693087550E+03  0.17456243156E+03 0.  0.
        -24    2    3    3    0    0  0.23356604395E+02 -0.14347471819E+03  0.50709335209E+03  0.53366931381E+03  0.80800637608E+02 0.  0.
          6    2    1    2  502    0  0.15794350385E+02  0.12100632822E+03  0.63948928734E+03  0.67409451383E+03  0.17482812125E+03 0.  0.
         24    2    5    5    0    0  0.50030032298E+02  0.87743907361E+02  0.24564717795E+03  0.27734249091E+03  0.79839362604E+02 0.  0.
          2    1    6    6  501    0  0.89498520827E+01  0.60989382156E+02  0.62644618614E+02  0.87887159639E+02  0.00000000000E+00 0. -1.
         -1    1    6    6    0  501  0.41080180215E+02  0.26754525206E+02  0.18300255933E+03  0.18945533127E+03  0.00000000000E+00 0.  1.
          5    1    5    5  502    0 -0.34235681913E+02  0.33262420856E+02  0.39384210940E+03  0.39675202292E+03  0.47000000000E+01 0. -1.
         13    1    4    4    0    0  0.21200990813E+02 -0.39614104958E+02  0.61726114063E+02  0.76347052860E+02  0.00000000000E+00 0. -1.
        -14    1    4    4    0    0  0.21556135819E+01 -0.10386061323E+03  0.44536723803E+03  0.45732226095E+03  0.00000000000E+00 0.  1.
         -5    1    3    3    0  504 -0.39150954780E+02  0.22468389969E+02  0.10377121735E+03  0.11326156169E+03  0.47000000000E+01 0.  1.
<mgrwt>
<rscale>  2 0.21315168E+03</rscale>
<asrwt>0</asrwt>
<pdfrwt beam="1">  1       21 0.19779837E+00 0.21320616E+03</pdfrwt>
<pdfrwt beam="2">  1       21 0.54362727E-02 0.21320616E+03</pdfrwt>
<totfact> 0.31917202E+04</totfact>
</mgrwt>
</event>
<event>
12    1  0.2791583E-001  0.3096053E+03  0.7546771E-02  0.1080630E+00
         21   -1    0    0  502  503  0.00000000000E+00  0.00000000000E+00  0.19171483883E+03  0.19171483883E+03  0.00000000000E+00 0.  1.
         21   -1    0    0  503  504 -0.00000000000E+00 -0.00000000000E+00 -0.58409701013E+03  0.58409701013E+03  0.00000000000E+00 0. -1.
         -6    2    1    2    0  504  0.51596674150E+02 -0.24984045361E+03 -0.34428786902E+03  0.46249327859E+03  0.17402134047E+03 0.  0.
        -24    2    3    3    0    0  0.20965979600E+01 -0.12796855853E+03 -0.90790373049E+02  0.17686049542E+03  0.81586734878E+02 0.  0.
          6    2    1    2  502    0 -0.51596674150E+02  0.24984045361E+03 -0.48094302278E+02  0.31331857037E+03  0.17542233490E+03 0.  0.
         24    2    5    5    0    0 -0.45012608786E+02  0.17421845392E+03 -0.99599641616E+02  0.22146582553E+03  0.82151193736E+02 0.  0.
          4    1    6    6  501    0 -0.49743703721E+02  0.72350929754E+02 -0.77519607305E+02  0.11712549941E+03  0.00000000000E+00 0. -1.
         -3    1    6    6    0  501  0.47310949352E+01  0.10186752417E+03 -0.22080034311E+02  0.10434032612E+03  0.00000000000E+00 0.  1.
          5    1    5    5  502    0 -0.65840653647E+01  0.75621999687E+02  0.51505339338E+02  0.91852744835E+02  0.47000000000E+01 0. -1.
         13    1    4    4    0    0  0.17799225166E+01 -0.92900784351E+02 -0.10393042856E+03  0.13941039358E+03  0.00000000000E+00 0. -1.
        -14    1    4    4    0    0  0.31667544345E+00 -0.35067774176E+02  0.13140055514E+02  0.37450101841E+02  0.00000000000E+00 0.  1.
         -5    1    3    3    0  504  0.49500076190E+02 -0.12187189508E+03 -0.25349749597E+03  0.28563278316E+03  0.47000000000E+01 0.  1.
<mgrwt>
<rscale>  2 0.30940724E+03</rscale>
<asrwt>0</asrwt>
<pdfrwt beam="1">  1       21 0.29494591E-01 0.30960534E+03</pdfrwt>
<pdfrwt beam="2">  1       21 0.89861077E-01 0.30960534E+03</pdfrwt>
<totfact> 0.10886696E+04</totfact>
</mgrwt>
</event>
<event>
12    1  0.2791583E-001  0.3030473E+03  0.7546771E-02  0.1084000E+00
         21   -1    0    0  502  503  0.00000000000E+00  0.00000000000E+00  0.23159989366E+03  0.23159989366E+03  0.00000000000E+00 0. -1.
         21   -1    0    0  503  504 -0.00000000000E+00 -0.00000000000E+00 -0.13870001598E+04  0.13870001598E+04  0.00000000000E+00 0.  1.
         -6    2    1    2    0  504 -0.20121636521E+03 -0.14130263059E+03 -0.12619906380E+04  0.12973537552E+04  0.17335494449E+03 0.  0.
        -24    2    3    3    0    0 -0.33173387885E+02 -0.74570591128E+02 -0.37509807197E+03  0.39220618660E+03  0.80410711281E+02 0.  0.
          6    2    1    2  502    0  0.20121636521E+03  0.14130263059E+03  0.10659037180E+03  0.32124629830E+03  0.17715309133E+03 0.  0.
         24    2    5    5    0    0  0.22254787139E+03  0.12106342123E+03  0.11575275405E+03  0.29009027159E+03  0.81054047260E+02 0.  0.
          2    1    6    6  501    0  0.20804027657E+03  0.81396112149E+02  0.91701960197E+02  0.24148567919E+03  0.00000000000E+00 0. -1.
         -1    1    6    6    0  501  0.14507594821E+02  0.39667309079E+02  0.24050793858E+02  0.48604592399E+02  0.00000000000E+00 0.  1.
          5    1    5    5  502    0 -0.21331506184E+02  0.20239209364E+02 -0.91623822562E+01  0.31156026710E+02  0.47000000000E+01 0. -1.
         11    1    4    4    0    0 -0.30350440354E+02 -0.94888521376E+01 -0.41367248880E+02  0.52176976000E+02  0.00000000000E+00 0. -1.
        -12    1    4    4    0    0 -0.28229475306E+01 -0.65081738990E+02 -0.33373082309E+03  0.34002921060E+03  0.00000000000E+00 0.  1.
         -5    1    3    3    0  504 -0.16804297732E+03 -0.66732039463E+02 -0.88689256599E+03  0.90514756859E+03  0.47000000000E+01 0.  1.
<mgrwt>
<rscale>  2 0.30249468E+03</rscale>
<asrwt>0</asrwt>
<pdfrwt beam="1">  1       21 0.35630754E-01 0.30304732E+03</pdfrwt>
<pdfrwt beam="2">  1       21 0.21338464E+00 0.30304732E+03</pdfrwt>
<totfact> 0.75657376E+02</totfact>
</mgrwt>
</event>
<event>
12    1  0.2791583E-001  0.1732164E+03  0.7546771E-02  0.1174656E+00
         21   -1    0    0  502  503  0.00000000000E+00  0.00000000000E+00  0.27210681206E+03  0.27210681206E+03  0.00000000000E+00 0.  1.
         21   -1    0    0  503  504 -0.00000000000E+00 -0.00000000000E+00 -0.21444870958E+03  0.21444870958E+03  0.00000000000E+00 0.  1.
         -6    2    1    2    0  504 -0.57809104517E+01 -0.18325757323E+00 -0.14096267429E+03  0.22332576377E+03  0.17311981028E+03 0.  0.
        -24    2    3    3    0    0 -0.16219870807E+02 -0.32726644553E+02 -0.11159540039E+02  0.89016465542E+02  0.80406954494E+02 0.  0.
          6    2    1    2  502    0  0.57809104517E+01  0.18325757323E+00  0.19862077676E+03  0.26322975788E+03  0.17264483764E+03 0.  0.
         24    2    5    5    0    0 -0.14833804450E+02 -0.64336778977E+02  0.13348989916E+03  0.16914510023E+03  0.80195067628E+02 0.  0.
          4    1    6    6  501    0 -0.26378599782E+02 -0.60288908370E+02  0.44785467489E+02  0.79601011910E+02  0.00000000000E+00 0. -1.
         -3    1    6    6    0  501  0.11544795332E+02 -0.40478706068E+01  0.88704431671E+02  0.89544088324E+02  0.00000000000E+00 0.  1.
          5    1    5    5  502    0  0.20614714901E+02  0.64520036550E+02  0.65130877596E+02  0.94084657641E+02  0.47000000000E+01 0. -1.
         11    1    4    4    0    0 -0.69826019915E+01  0.26635793637E+02  0.16647380743E+01  0.27586112196E+02  0.00000000000E+00 0. -1.
        -12    1    4    4    0    0 -0.92372688156E+01 -0.59362438190E+02 -0.12824278114E+02  0.61430353345E+02  0.00000000000E+00 0.  1.
         -5    1    3    3    0  504  0.10438960355E+02  0.32543386979E+02 -0.12980313425E+03  0.13430929822E+03  0.47000000000E+01 0.  1.
<mgrwt>
<rscale>  2 0.17309760E+03</rscale>
<asrwt>0</asrwt>
<pdfrwt beam="1">  1       21 0.41862587E-01 0.17321640E+03</pdfrwt>
<pdfrwt beam="2">  1       21 0.32992109E-01 0.17321640E+03</pdfrwt>
<totfact> 0.49036852E+04</totfact>
</mgrwt>
</event>
<event>
12    1  0.2791583E-001  0.1909198E+03  0.7546771E-02  0.1157981E+00
         21   -1    0    0  502  503  0.00000000000E+00  0.00000000000E+00  0.27581093853E+02  0.27581093853E+02  0.00000000000E+00 0.  1.
         21   -1    0    0  503  504 -0.00000000000E+00 -0.00000000000E+00 -0.21360195293E+04  0.21360195293E+04  0.00000000000E+00 0.  1.
         -6    2    1    2    0  504  0.57981631148E+02 -0.55197720959E+02 -0.38449184826E+03  0.42928351834E+03  0.17332541587E+03 0.  0.
        -24    2    3    3    0    0  0.60215464366E+02  0.29873845445E+02 -0.18250697167E+03  0.21005272262E+03  0.79341053558E+02 0.  0.
          6    2    1    2  502    0 -0.57981631148E+02  0.55197720959E+02 -0.17239465872E+04  0.17343171048E+04  0.17162554191E+03 0.  0.
         24    2    5    5    0    0 -0.22172739490E+02  0.17228145148E+02 -0.15544338732E+04  0.15568893291E+04  0.82772443476E+02 0.  0.
          2    1    6    6  501    0 -0.52889587241E+02  0.19766017355E+02 -0.10441348398E+04  0.10456603500E+04  0.00000000000E+00 0. -1.
         -1    1    6    6    0  501  0.30716847751E+02 -0.25378722063E+01 -0.51029903339E+03  0.51122897904E+03  0.00000000000E+00 0.  1.
          5    1    5    5  502    0 -0.35808891658E+02  0.37969575811E+02 -0.16951271393E+03  0.17742777571E+03  0.47000000000E+01 0. -1.
         13    1    4    4    0    0 -0.14965252370E+02  0.23803967603E+02 -0.41277340702E+02  0.49944033754E+02  0.00000000000E+00 0. -1.
        -14    1    4    4    0    0  0.75180716736E+02  0.60698778421E+01 -0.14122963097E+03  0.16010868886E+03  0.00000000000E+00 0.  1.
         -5    1    3    3    0  504 -0.22338332180E+01 -0.85071566404E+02 -0.20198487659E+03  0.21923079572E+03  0.47000000000E+01 0.  1.
<mgrwt>
<rscale>  2 0.19053312E+03</rscale>
<asrwt>0</asrwt>
<pdfrwt beam="1">  1       21 0.42432436E-02 0.19091977E+03</pdfrwt>
<pdfrwt beam="2">  1       21 0.32861851E+00 0.19091977E+03</pdfrwt>
<totfact> 0.82951510E+03</totfact>
</mgrwt>
</event>
<event>
12    1  0.2791583E-001  0.1803736E+03  0.7546771E-02  0.1167542E+00
         21   -1    0    0  502  503  0.00000000000E+00  0.00000000000E+00  0.20792764910E+02  0.20792764910E+02  0.00000000000E+00 0. -1.
         21   -1    0    0  503  504 -0.00000000000E+00 -0.00000000000E+00 -0.16150603928E+04  0.16150603928E+04  0.00000000000E+00 0. -1.
         -6    2    1    2    0  504  0.26491780518E+02 -0.42494953963E+02 -0.94747357100E+03  0.96448991683E+03  0.17328299506E+03 0.  0.
        -24    2    3    3    0    0 -0.90176544846E+01 -0.58355068366E+02 -0.88554761060E+03  0.89121387863E+03  0.81123207072E+02 0.  0.
          6    2    1    2  502    0 -0.26491780518E+02  0.42494953963E+02 -0.64679405685E+03  0.67136324084E+03  0.17285373477E+03 0.  0.
         24    2    5    5    0    0 -0.26524263049E+02 -0.23286549016E+02 -0.53105538059E+03  0.53815386290E+03  0.79648998748E+02 0.  0.
          2    1    6    6  501    0 -0.51083586546E+01 -0.48676578832E+02 -0.22271460591E+03  0.22802916554E+03  0.00000000000E+00 0. -1.
         -1    1    6    6    0  501 -0.21415904395E+02  0.25390029816E+02 -0.30834077469E+03  0.31012469735E+03  0.00000000000E+00 0.  1.
          5    1    5    5  502    0  0.32482531668E-01  0.65781502979E+02 -0.11573867626E+03  0.13320937794E+03  0.47000000000E+01 0. -1.
         11    1    4    4    0    0 -0.34588001173E+01 -0.73038086712E+02 -0.49708156506E+03  0.50243069943E+03  0.00000000000E+00 0. -1.
        -12    1    4    4    0    0 -0.55588543674E+01  0.14683018346E+02 -0.38846604554E+03  0.38878317920E+03  0.00000000000E+00 0.  1.
         -5    1    3    3    0  504  0.35509435002E+02  0.15860114403E+02 -0.61925960402E+02  0.73276038203E+02  0.47000000000E+01 0.  1.
<mgrwt>
<rscale>  2 0.18027041E+03</rscale>
<asrwt>0</asrwt>
<pdfrwt beam="1">  1       21 0.31988868E-02 0.18037359E+03</pdfrwt>
<pdfrwt beam="2">  1       21 0.24847084E+00 0.18037359E+03</pdfrwt>
<totfact> 0.39005371E+04</totfact>
</mgrwt>
</event>
<event>
12    1  0.2791583E-001  0.2405931E+03  0.7546771E-02  0.1119505E+00
         21   -1    0    0  502  503  0.00000000000E+00  0.00000000000E+00  0.67489960330E+02  0.67489960330E+02  0.00000000000E+00 0. -1.
         21   -1    0    0  503  504 -0.00000000000E+00 -0.00000000000E+00 -0.89404314637E+03  0.89404314637E+03  0.00000000000E+00 0.  1.
         -6    2    1    2    0  504  0.76154631583E+02  0.14832393099E+03 -0.51376200001E+03  0.56730627588E+03  0.17345172698E+03 0.  0.
        -24    2    3    3    0    0 -0.27891767275E+02  0.64832452440E+02 -0.22925075990E+03  0.25303693940E+03  0.80564162108E+02 0.  0.
          6    2    1    2  502    0 -0.76154631583E+02 -0.14832393099E+03 -0.31279118603E+03  0.39422683081E+03  0.17255999437E+03 0.  0.
         24    2    5    5    0    0 -0.98683265535E+02 -0.45104717123E+02 -0.17533759385E+03  0.22079867432E+03  0.78968097114E+02 0.  0.
          2    1    6    6  501    0 -0.45450021757E+01  0.56998635214E+01 -0.70983028456E+02  0.71356399977E+02  0.00000000000E+00 0. -1.
         -1    1    6    6    0  501 -0.94138263360E+02 -0.50804580644E+02 -0.10435456540E+03  0.14944227435E+03  0.00000000000E+00 0.  1.
          5    1    5    5  502    0  0.22528633952E+02 -0.10321921387E+03 -0.13745359218E+03  0.17342815649E+03  0.47000000000E+01 0. -1.
         13    1    4    4    0    0 -0.21725946554E+01  0.56152329590E+02 -0.21530917995E+03  0.22252156583E+03  0.00000000000E+00 0. -1.
        -14    1    4    4    0    0 -0.25719172620E+02  0.86801228499E+01 -0.13941579944E+02  0.30515373573E+02  0.00000000000E+00 0.  1.
         -5    1    3    3    0  504  0.10404639886E+03  0.83491478555E+02 -0.28451124011E+03  0.31426933649E+03  0.47000000000E+01 0.  1.
<mgrwt>
<rscale>  2 0.24043237E+03</rscale>
<asrwt>0</asrwt>
<pdfrwt beam="1">  1       21 0.10383071E-01 0.24059305E+03</pdfrwt>
<pdfrwt beam="2">  1       21 0.13754510E+00 0.24059305E+03</pdfrwt>
<totfact> 0.27662939E+04</totfact>
</mgrwt>
</event>
<event>
12    1  0.2791583E-001  0.2758418E+03  0.7546771E-02  0.1097984E+00
         21   -1    0    0  502  503  0.00000000000E+00  0.00000000000E+00  0.34652548669E+04  0.34652548669E+04  0.00000000000E+00 0.  1.
         21   -1    0    0  503  504 -0.00000000000E+00 -0.00000000000E+00 -0.39015817091E+02  0.39015817091E+02  0.00000000000E+00 0.  1.
         -6    2    1    2    0  504 -0.21402788657E+03  0.11210315806E+02  0.55451573084E+03  0.61932986435E+03  0.17363230607E+03 0.  0.
        -24    2    3    3    0    0 -0.28127435683E+02  0.21917521297E+02  0.21407522969E+03  0.23126357269E+03  0.79894340925E+02 0.  0.
          6    2    1    2  502    0  0.21402788657E+03 -0.11210315806E+02  0.28717233190E+04  0.28849408197E+04  0.17365225231E+03 0.  0.
         24    2    5    5    0    0  0.23432092826E+03 -0.27372666113E+02  0.25430887050E+04  0.25552503154E+04  0.79677176440E+02 0.  0.
          2    1    6    6  501    0  0.23249982285E+02 -0.29575501790E+02  0.43208522268E+03  0.43371985387E+03  0.00000000000E+00 0. -1.
         -1    1    6    6    0  501  0.21107094598E+03  0.22028356772E+01  0.21110034823E+04  0.21215304615E+04  0.00000000000E+00 0.  1.
          5    1    5    5  502    0 -0.20293041685E+02  0.16162350307E+02  0.32863461400E+03  0.32969050430E+03  0.47000000000E+01 0. -1.
         11    1    4    4    0    0 -0.12041805008E+02  0.46490064109E+01 -0.27167346322E+01  0.13190867126E+02  0.00000000000E+00 0. -1.
        -12    1    4    4    0    0 -0.16085630675E+02  0.17268514887E+02  0.21679196432E+03  0.21807270557E+03  0.00000000000E+00 0.  1.
         -5    1    3    3    0  504 -0.18590045089E+03 -0.10707205492E+02  0.34044050116E+03  0.38806629166E+03  0.47000000000E+01 0.  1.
<mgrwt>
<rscale>  2 0.27583869E+03</rscale>
<asrwt>0</asrwt>
<pdfrwt beam="1">  1       21 0.53311589E+00 0.27584182E+03</pdfrwt>
<pdfrwt beam="2">  1       21 0.60024361E-02 0.27584182E+03</pdfrwt>
<totfact> 0.19119873E+02</totfact>
</mgrwt>
</event>
<event>
12    1  0.2791583E-001  0.1727623E+03  0.7546771E-02  0.1175846E+00
         21   -1    0    0  502  503  0.00000000000E+00  0.00000000000E+00  0.40825748971E+03  0.40825748971E+03  0.00000000000E+00 0.  1.
         21   -1    0    0  503  504 -0.00000000000E+00 -0.00000000000E+00 -0.73051804371E+02  0.73051804371E+02  0.00000000000E+00 0. -1.
         -6    2    1    2    0  504  0.13693461462E+02  0.10215486564E+02  0.19848312702E+03  0.26099167520E+03  0.16860971430E+03 0.  0.
        -24    2    3    3    0    0  0.40254355605E+02  0.59420097693E+02  0.15770780751E+03  0.19162820112E+03  0.81844082023E+02 0.  0.
          6    2    1    2  502    0 -0.13693461462E+02 -0.10215486564E+02  0.13672255832E+03  0.22031761889E+03  0.17191546814E+03 0.  0.
         24    2    5    5    0    0  0.53645698711E+02  0.33800171073E+01  0.51246472136E+02  0.11055582443E+03  0.81896910219E+02 0.  0.
          2    1    6    6  501    0  0.45879079747E+02 -0.29929343047E+01 -0.11187933595E+02  0.47318257283E+02  0.00000000000E+00 0. -1.
         -1    1    6    6    0  501  0.77666189641E+01  0.63729514121E+01  0.62434405731E+02  0.63237567148E+02  0.00000000000E+00 0.  1.
          5    1    5    5  502    0 -0.67339160173E+02 -0.13595503671E+02  0.85476086186E+02  0.10976179446E+03  0.47000000000E+01 0. -1.
         11    1    4    4    0    0  0.41008405454E+02  0.10614930542E+02  0.22681192782E+02  0.48050000773E+02  0.00000000000E+00 0. -1.
        -12    1    4    4    0    0 -0.75404984897E+00  0.48805167150E+02  0.13502661472E+03  0.14357820035E+03  0.00000000000E+00 0.  1.
         -5    1    3    3    0  504 -0.26560894143E+02 -0.49204611128E+02  0.40775319515E+02  0.69363474074E+02  0.47000000000E+01 0.  1.
<mgrwt>
<rscale>  2 0.17193400E+03</rscale>
<asrwt>0</asrwt>
<pdfrwt beam="1">  1       21 0.62808843E-01 0.17276225E+03</pdfrwt>
<pdfrwt beam="2">  1       21 0.11238739E-01 0.17276225E+03</pdfrwt>
<totfact> 0.15589902E+05</totfact>
</mgrwt>
</event>
<event>
12    1  0.2791583E-001  0.2636522E+03  0.7546771E-02  0.1105077E+00
         21   -1    0    0  502  503  0.00000000000E+00  0.00000000000E+00  0.18908773731E+04  0.18908773731E+04  0.00000000000E+00 0. -1.
         21   -1    0    0  503  504 -0.00000000000E+00 -0.00000000000E+00 -0.37070256961E+02  0.37070256961E+02  0.00000000000E+00 0.  1.
         -6    2    1    2    0  504  0.16483270425E+03 -0.10790938409E+03  0.10270493113E+04  0.10601682998E+04  0.17410422341E+03 0.  0.
        -24    2    3    3    0    0  0.16841067955E+03 -0.10901682055E+03  0.69094946750E+03  0.72401472881E+03  0.80866165667E+02 0.  0.
          6    2    1    2  502    0 -0.16483270425E+03  0.10790938409E+03  0.82675780481E+03  0.86777933018E+03  0.17520913932E+03 0.  0.
         24    2    5    5    0    0 -0.30884860568E+02  0.80997066540E+01  0.17345142986E+03  0.19343868474E+03  0.79458456901E+02 0.  0.
          2    1    6    6  501    0  0.19141855506E+02 -0.20054583822E+02  0.47004106326E+02  0.54570898618E+02  0.00000000000E+00 0. -1.
         -1    1    6    6    0  501 -0.50026716074E+02  0.28154290476E+02  0.12644732354E+03  0.13886778613E+03  0.00000000000E+00 0.  1.
          5    1    5    5  502    0 -0.13394784368E+03  0.99809677437E+02  0.65330637495E+03  0.67434064543E+03  0.47000000000E+01 0. -1.
         11    1    4    4    0    0  0.70436456848E+02 -0.65217437184E+02  0.45186195458E+03  0.46194570521E+03  0.00000000000E+00 0. -1.
        -12    1    4    4    0    0  0.97974222701E+02 -0.43799383367E+02  0.23908751292E+03  0.26206902360E+03  0.00000000000E+00 0.  1.
         -5    1    3    3    0  504 -0.35779752972E+01  0.11074364590E+01  0.33609984379E+03  0.33615357103E+03  0.47000000000E+01 0.  1.
<mgrwt>
<rscale>  2 0.26346880E+03</rscale>
<asrwt>0</asrwt>
<pdfrwt beam="1">  1       21 0.29090414E+00 0.26365223E+03</pdfrwt>
<pdfrwt beam="2">  1       21 0.57031179E-02 0.26365223E+03</pdfrwt>
<totfact> 0.77510290E+03</totfact>
</mgrwt>
</event>
<event>
12    1  0.2791583E-001  0.1774122E+03  0.7546771E-02  0.1170343E+00
         21   -1    0    0  502  503  0.00000000000E+00  0.00000000000E+00  0.12603825033E+03  0.12603825033E+03  0.00000000000E+00 0. -1.
         21   -1    0    0  503  504 -0.00000000000E+00 -0.00000000000E+00 -0.52630435727E+03  0.52630435727E+03  0.00000000000E+00 0. -1.
         -6    2    1    2    0  504  0.11410479620E+02  0.36136478881E+02 -0.43662278174E+03  0.47129028100E+03  0.17331771775E+03 0.  0.
        -24    2    3    3    0    0  0.97125527628E+01 -0.12557286578E+02 -0.40852143671E+03  0.41484790913E+03  0.70405996426E+02 0.  0.
          6    2    1    2  502    0 -0.11410479620E+02 -0.36136478881E+02  0.36356674797E+02  0.18105232659E+03  0.17326884605E+03 0.  0.
         24    2    5    5    0    0  0.21558167559E+02 -0.82043807207E+02  0.79904389638E+00  0.11411317806E+03  0.76323247092E+02 0.  0.
          4    1    6    6  501    0  0.25252992519E+02 -0.71711590962E+02  0.30905347072E+02  0.82069521670E+02  0.00000000000E+00 0. -1.
         -3    1    6    6    0  501 -0.36948249596E+01 -0.10332216244E+02 -0.30106303176E+02  0.32043656391E+02  0.00000000000E+00 0.  1.
          5    1    5    5  502    0 -0.32968647179E+02  0.45907328326E+02  0.35557630901E+02  0.66939148532E+02  0.47000000000E+01 0. -1.
         11    1    4    4    0    0  0.14068571386E+02  0.16147233627E+02 -0.33669715020E+03  0.33737757603E+03  0.00000000000E+00 0. -1.
        -12    1    4    4    0    0 -0.43560186232E+01 -0.28704520205E+02 -0.71824286507E+02  0.77470333101E+02  0.00000000000E+00 0.  1.
         -5    1    3    3    0  504  0.16979268572E+01  0.48693765459E+02 -0.28101345029E+02  0.56442371872E+02  0.47000000000E+01 0.  1.
<mgrwt>
<rscale>  2 0.17740023E+03</rscale>
<asrwt>0</asrwt>
<pdfrwt beam="1">  1       21 0.19390500E-01 0.17741216E+03</pdfrwt>
<pdfrwt beam="2">  1       21 0.80969900E-01 0.17741216E+03</pdfrwt>
<totfact> 0.33000823E+04</totfact>
</mgrwt>
</event>
<event>
12    1  0.2791583E-001  0.1871706E+03  0.7546771E-02  0.1164355E+00
         21   -1    0    0  502  503  0.00000000000E+00  0.00000000000E+00  0.16344044725E+03  0.16344044725E+03  0.00000000000E+00 0.  1.
         21   -1    0    0  503  504 -0.00000000000E+00 -0.00000000000E+00 -0.46681119475E+03  0.46681119475E+03  0.00000000000E+00 0.  1.
         -6    2    1    2    0  504  0.30953452553E+01 -0.22276770107E+02 -0.39287382062E+03  0.43518119959E+03  0.18581442866E+03 0.  0.
        -24    2    3    3    0    0  0.40976166380E+02 -0.21711448140E+02 -0.89634401923E+02  0.12954823139E+03  0.81227981983E+02 0.  0.
          6    2    1    2  502    0 -0.30953452553E+01  0.22276770107E+02  0.89503073120E+02  0.19507044240E+03  0.17185994808E+03 0.  0.
         24    2    5    5    0    0 -0.13870308317E+02  0.10103136641E+02 -0.20248661208E+02  0.84021667675E+02  0.79719342292E+02 0.  0.
          4    1    6    6  501    0 -0.89433581087E+01 -0.22000304789E+02 -0.39628644795E+02  0.46199854474E+02  0.00000000000E+00 0. -1.
         -3    1    6    6    0  501 -0.49269502082E+01  0.32103441430E+02  0.19379983587E+02  0.37821813202E+02  0.00000000000E+00 0.  1.
          5    1    5    5  502    0  0.10774963062E+02  0.12173633465E+02  0.10975173433E+03  0.11104877473E+03  0.47000000000E+01 0. -1.
         11    1    4    4    0    0  0.13391119011E+01  0.25246608975E+02 -0.63858233870E+01  0.26076104497E+02  0.00000000000E+00 0. -1.
        -12    1    4    4    0    0  0.39637054478E+02 -0.46958057115E+02 -0.83248578536E+02  0.10347212689E+03  0.00000000000E+00 0.  1.
         -5    1    3    3    0  504 -0.37880821124E+02 -0.56532196643E+00 -0.30323941870E+03  0.30563296820E+03  0.47000000000E+01 0.  1.
<mgrwt>
<rscale>  2 0.18360892E+03</rscale>
<asrwt>0</asrwt>
<pdfrwt beam="1">  1       21 0.25144684E-01 0.18717061E+03</pdfrwt>
<pdfrwt beam="2">  1       21 0.71817107E-01 0.18717061E+03</pdfrwt>
<totfact> 0.26310382E+04</totfact>
</mgrwt>
</event>
<event>
12    1  0.2791583E-001  0.2397335E+03  0.7546771E-02  0.1120011E+00
         21   -1    0    0  502  503  0.00000000000E+00  0.00000000000E+00  0.57673903073E+02  0.57673903073E+02  0.00000000000E+00 0. -1.
         21   -1    0    0  503  504 -0.00000000000E+00 -0.00000000000E+00 -0.10691401448E+04  0.10691401448E+04  0.00000000000E+00 0. -1.
         -6    2    1    2    0  504  0.16657660028E+03  0.61146504952E+01 -0.65336329332E+03  0.69587336523E+03  0.17196218964E+03 0.  0.
        -24    2    3    3    0    0  0.11922727777E+03  0.20555237601E+01 -0.62259847183E+03  0.63906668347E+03  0.80981478437E+02 0.  0.
          6    2    1    2  502    0 -0.16657660028E+03 -0.61146504952E+01 -0.35810294839E+03  0.43094068263E+03  0.17229915145E+03 0.  0.
         24    2    5    5    0    0 -0.13007188271E+02 -0.69558605323E+01 -0.91363511698E+02  0.12311558777E+03  0.81194739607E+02 0.  0.
          2    1    6    6  501    0 -0.21371291882E+02 -0.32692445626E+02 -0.87445504379E+02  0.95771834867E+02  0.00000000000E+00 0. -1.
         -1    1    6    6    0  501  0.83641036106E+01  0.25736585094E+02 -0.39180073194E+01  0.27343752904E+02  0.00000000000E+00 0.  1.
          5    1    5    5  502    0 -0.15356941200E+03  0.84121003701E+00 -0.26673943670E+03  0.30782509486E+03  0.47000000000E+01 0. -1.
         13    1    4    4    0    0  0.89041307215E+02  0.65348947789E+01 -0.25451033967E+03  0.26971572486E+03  0.00000000000E+00 0. -1.
        -14    1    4    4    0    0  0.30185970556E+02 -0.44793710188E+01 -0.36808813217E+03  0.36935095861E+03  0.00000000000E+00 0.  1.
         -5    1    3    3    0  504  0.47349322505E+02  0.40591267352E+01 -0.30764821493E+02  0.56806681764E+02  0.47000000000E+01 0.  1.
<mgrwt>
<rscale>  2 0.23967296E+03</rscale>
<asrwt>0</asrwt>
<pdfrwt beam="1">  1       21 0.88729091E-02 0.23973350E+03</pdfrwt>
<pdfrwt beam="2">  1       21 0.16448308E+00 0.23973350E+03</pdfrwt>
<totfact> 0.22702730E+04</totfact>
</mgrwt>
</event>
<event>
12    1  0.2791583E-001  0.2450891E+03  0.7546771E-02  0.1116453E+00
         21   -1    0    0  502  503  0.00000000000E+00  0.00000000000E+00  0.32422205150E+03  0.32422205150E+03  0.00000000000E+00 0. -1.
         21   -1    0    0  503  504 -0.00000000000E+00 -0.00000000000E+00 -0.22135235803E+03  0.22135235803E+03  0.00000000000E+00 0. -1.
         -6    2    1    2    0  504  0.16364519155E+03 -0.58519335847E+02 -0.58732186281E+02  0.25202807209E+03  0.17281324611E+03 0.  0.
        -24    2    3    3    0    0  0.11580727071E+03 -0.83243334694E+02  0.93257826149E+01  0.16511593301E+03  0.82677230193E+02 0.  0.
          6    2    1    2  502    0 -0.16364519155E+03  0.58519335847E+02  0.16160187975E+03  0.29354633744E+03  0.17277159288E+03 0.  0.
         24    2    5    5    0    0 -0.16021969200E+03  0.52266015594E+01  0.15907903816E+03  0.23987787087E+03  0.80855336755E+02 0.  0.
          4    1    6    6  501    0 -0.13401822001E+02  0.50737102409E+01  0.62548076399E+02  0.64168631198E+02  0.00000000000E+00 0. -1.
         -3    1    6    6    0  501 -0.14681787000E+03  0.15289131854E+00  0.96530961759E+02  0.17570923967E+03  0.00000000000E+00 0.  1.
          5    1    5    5  502    0 -0.34254995462E+01  0.53292734288E+02  0.25228415872E+01  0.53668466577E+02  0.47000000000E+01 0. -1.
         11    1    4    4    0    0  0.74143858808E+02 -0.11501492101E+02 -0.19091978413E+02  0.77421571666E+02  0.00000000000E+00 0. -1.
        -12    1    4    4    0    0  0.41663411904E+02 -0.71741842593E+02  0.28417761028E+02  0.87694361347E+02  0.00000000000E+00 0.  1.
         -5    1    3    3    0  504  0.47837920833E+02  0.24723998847E+02 -0.68057968896E+02  0.86912139077E+02  0.47000000000E+01 0.  1.
<mgrwt>
<rscale>  2 0.24508178E+03</rscale>
<asrwt>0</asrwt>
<pdfrwt beam="1">  1       21 0.49880316E-01 0.24508913E+03</pdfrwt>
<pdfrwt beam="2">  1       21 0.34054209E-01 0.24508913E+03</pdfrwt>
<totfact> 0.30990155E+04</totfact>
</mgrwt>
</event>
<event>
12    1  0.2791583E-001  0.1856193E+03  0.7546771E-02  0.1162676E+00
         21   -1    0    0  502  503  0.00000000000E+00  0.00000000000E+00  0.58108968127E+02  0.58108968127E+02  0.00000000000E+00 0. -1.
         21   -1    0    0  503  504 -0.00000000000E+00 -0.00000000000E+00 -0.72480340670E+03  0.72480340670E+03  0.00000000000E+00 0. -1.
         -6    2    1    2    0  504  0.67887294436E+02  0.20236764738E+01 -0.50271654444E+03  0.53589034603E+03  0.17274767408E+03 0.  0.
        -24    2    3    3    0    0  0.13943665114E+02 -0.26027466185E+02 -0.44156161661E+03  0.44952601922E+03  0.78899466991E+02 0.  0.
          6    2    1    2  502    0 -0.67887294436E+02 -0.20236764738E+01 -0.16397789413E+03  0.24702202879E+03  0.17180905952E+03 0.  0.
         24    2    5    5    0    0  0.40723812081E+01 -0.44424240500E+02 -0.11694085150E+03  0.15105028228E+03  0.84563157438E+02 0.  0.
          2    1    6    6  501    0 -0.21885148232E+02 -0.33067841698E+02 -0.10665986424E+02  0.41063428182E+02  0.00000000000E+00 0. -1.
         -1    1    6    6    0  501  0.25957529440E+02 -0.11356398802E+02 -0.10627486508E+03  0.10998685410E+03  0.00000000000E+00 0.  1.
          5    1    5    5  502    0 -0.71959675644E+02  0.42400564026E+02 -0.47037042627E+02  0.95971746507E+02  0.47000000000E+01 0. -1.
         13    1    4    4    0    0  0.30686499374E+02 -0.50190636679E+01 -0.39131851319E+03  0.39255194689E+03  0.00000000000E+00 0. -1.
        -14    1    4    4    0    0 -0.16742834260E+02 -0.21008402517E+02 -0.50243103429E+02  0.56974072327E+02  0.00000000000E+00 0.  1.
         -5    1    3    3    0  504  0.53943629321E+02  0.28051142659E+02 -0.61154927829E+02  0.86364326817E+02  0.47000000000E+01 0.  1.
<mgrwt>
<rscale>  2 0.18540065E+03</rscale>
<asrwt>0</asrwt>
<pdfrwt beam="1">  1       21 0.89398410E-02 0.18561934E+03</pdfrwt>
<pdfrwt beam="2">  1       21 0.11150822E+00 0.18561934E+03</pdfrwt>
<totfact> 0.62667529E+04</totfact>
</mgrwt>
</event>
<event>
12    1  0.2791583E-001  0.1933796E+03  0.7546771E-02  0.1155518E+00
         21   -1    0    0  502  503  0.00000000000E+00  0.00000000000E+00  0.53081173644E+03  0.53081173644E+03  0.00000000000E+00 0. -1.
         21   -1    0    0  503  504 -0.00000000000E+00 -0.00000000000E+00 -0.99818104093E+02  0.99818104093E+02  0.00000000000E+00 0. -1.
         -6    2    1    2    0  504 -0.32282774667E+02  0.78402843457E+02  0.44006998469E+02  0.19801649291E+03  0.17344950893E+03 0.  0.
        -24    2    3    3    0    0 -0.92360539300E+01  0.10402007825E+03 -0.13057712181E+02  0.13118936326E+03  0.78324094717E+02 0.  0.
          6    2    1    2  502    0  0.32282774667E+02 -0.78402843457E+02  0.38698663387E+03  0.43261334762E+03  0.17380008729E+03 0.  0.
         24    2    5    5    0    0  0.28577524065E+02 -0.11399770061E+03  0.22208945687E+03  0.26381200959E+03  0.80379717116E+02 0.  0.
          2    1    6    6  501    0 -0.25024375674E+02 -0.40348885461E+02  0.10681583930E+03  0.11689258086E+03  0.00000000000E+00 0. -1.
         -1    1    6    6    0  501  0.53601899739E+02 -0.73648815152E+02  0.11527361757E+03  0.14691942872E+03  0.00000000000E+00 0.  1.
          5    1    5    5  502    0  0.37052506023E+01  0.35594857155E+02  0.16489717701E+03  0.16880133803E+03  0.47000000000E+01 0. -1.
         13    1    4    4    0    0 -0.19856354608E+02  0.66917389712E+02  0.27665849587E+02  0.75084026913E+02  0.00000000000E+00 0. -1.
        -14    1    4    4    0    0  0.10620300678E+02  0.37102688541E+02 -0.40723561768E+02  0.56105336347E+02  0.00000000000E+00 0.  1.
         -5    1    3    3    0  504 -0.23046720737E+02 -0.25617234796E+02  0.57064710651E+02  0.66827129648E+02  0.47000000000E+01 0.  1.
<mgrwt>
<rscale>  2 0.19330076E+03</rscale>
<asrwt>0</asrwt>
<pdfrwt beam="1">  1       21 0.81663342E-01 0.19337956E+03</pdfrwt>
<pdfrwt beam="2">  1       21 0.15356632E-01 0.19337956E+03</pdfrwt>
<totfact> 0.49322700E+04</totfact>
</mgrwt>
</event>
<event>
12    1  0.2791583E-001  0.2145459E+03  0.7546771E-02  0.1138164E+00
         21   -1    0    0  502  503  0.00000000000E+00  0.00000000000E+00  0.11441229903E+03  0.11441229903E+03  0.00000000000E+00 0. -1.
         21   -1    0    0  503  504 -0.00000000000E+00 -0.00000000000E+00 -0.41110559610E+03  0.41110559610E+03  0.00000000000E+00 0. -1.
         -6    2    1    2    0  504  0.99198079179E+02  0.77412057230E+02 -0.18953544226E+03  0.28569975787E+03  0.17282297955E+03 0.  0.
        -24    2    3    3    0    0  0.21769468018E+02  0.10166530669E+03 -0.99168046241E+02  0.16416060287E+03  0.79401875405E+02 0.  0.
          6    2    1    2  502    0 -0.99198079179E+02 -0.77412057230E+02 -0.10715785481E+03  0.23981813726E+03  0.17377297717E+03 0.  0.
         24    2    5    5    0    0 -0.10178237951E+03  0.27165629585E+01 -0.87106773278E+02  0.15704489127E+03  0.81905283291E+02 0.  0.
          2    1    6    6  501    0 -0.39448868579E+01 -0.12346817683E+02 -0.49472045254E+02  0.51141854687E+02  0.00000000000E+00 0. -1.
         -1    1    6    6    0  501 -0.97837492650E+02  0.15063380641E+02 -0.37634728024E+02  0.10590303658E+03  0.00000000000E+00 0.  1.
          5    1    5    5  502    0  0.25843003294E+01 -0.80128620188E+02 -0.20051081534E+02  0.82773245993E+02  0.47000000000E+01 0. -1.
         11    1    4    4    0    0  0.64682330648E+01  0.10354619722E+03 -0.10506389095E+03  0.14765525449E+03  0.00000000000E+00 0. -1.
        -12    1    4    4    0    0  0.15301234953E+02 -0.18808905275E+01  0.58958447113E+01  0.16505348379E+02  0.00000000000E+00 0.  1.
         -5    1    3    3    0  504  0.77428611161E+02 -0.24253249459E+02 -0.90367396017E+02  0.12153915500E+03  0.47000000000E+01 0.  1.
<mgrwt>
<rscale>  2 0.21435343E+03</rscale>
<asrwt>0</asrwt>
<pdfrwt beam="1">  1       21 0.17601892E-01 0.21454588E+03</pdfrwt>
<pdfrwt beam="2">  1       21 0.63247014E-01 0.21454588E+03</pdfrwt>
<totfact> 0.67009358E+04</totfact>
</mgrwt>
</event>
<event>
12    1  0.2791583E-001  0.2054061E+03  0.7546771E-02  0.1146980E+00
         21   -1    0    0  502  503  0.00000000000E+00  0.00000000000E+00  0.34478666778E+03  0.34478666778E+03  0.00000000000E+00 0.  1.
         21   -1    0    0  503  504 -0.00000000000E+00 -0.00000000000E+00 -0.19038202909E+03  0.19038202909E+03  0.00000000000E+00 0.  1.
         -6    2    1    2    0  504 -0.22018340914E+02 -0.95018840133E+02 -0.87369995852E+02  0.22321557749E+03  0.18077137644E+03 0.  0.
        -24    2    3    3    0    0 -0.82907273294E+02 -0.49446644707E+02 -0.73482913758E+02  0.14576089311E+03  0.80795499308E+02 0.  0.
          6    2    1    2  502    0  0.22018340914E+02  0.95018840133E+02  0.24177463455E+03  0.31195311939E+03  0.17130787333E+03 0.  0.
         24    2    5    5    0    0  0.65015601936E+02  0.56223598001E+02  0.85989769492E+02  0.14568571594E+03  0.80261858342E+02 0.  0.
          2    1    6    6  501    0  0.24034474953E+02  0.87427912997E+01 -0.12852477305E+02  0.28623042446E+02  0.00000000000E+00 0. -1.
         -1    1    6    6    0  501  0.40981126983E+02  0.47480806701E+02  0.98842246798E+02  0.11706267349E+03  0.00000000000E+00 0.  1.
          5    1    5    5  502    0 -0.42997261022E+02  0.38795242132E+02  0.15578486506E+03  0.16626740344E+03  0.47000000000E+01 0. -1.
         11    1    4    4    0    0 -0.20993431922E+02 -0.21163139093E+02  0.15603563551E+02  0.33646304932E+02  0.00000000000E+00 0. -1.
        -12    1    4    4    0    0 -0.61913841373E+02 -0.28283505613E+02 -0.89086477308E+02  0.11211458818E+03  0.00000000000E+00 0.  1.
         -5    1    3    3    0  504  0.60888932381E+02 -0.45572195427E+02 -0.13887082095E+02  0.77454684375E+02  0.47000000000E+01 0.  1.
<mgrwt>
<rscale>  2 0.20330478E+03</rscale>
<asrwt>0</asrwt>
<pdfrwt beam="1">  1       21 0.53044102E-01 0.20540613E+03</pdfrwt>
<pdfrwt beam="2">  1       21 0.29289543E-01 0.20540613E+03</pdfrwt>
<totfact> 0.37340354E+04</totfact>
</mgrwt>
</event>
<event>
12    1  0.2791583E-001  0.2129326E+03  0.7546771E-02  0.1139495E+00
         21   -1    0    0  502  503  0.00000000000E+00  0.00000000000E+00  0.21035740210E+03  0.21035740210E+03  0.00000000000E+00 0.  1.
         21   -1    0    0  503  504 -0.00000000000E+00 -0.00000000000E+00 -0.27152228120E+03  0.27152228120E+03  0.00000000000E+00 0.  1.
         -6    2    1    2    0  504  0.62755668156E+02 -0.10682683283E+03  0.79913817891E+02  0.22743463909E+03  0.17317635713E+03 0.  0.
        -24    2    3    3    0    0  0.71779106307E+02 -0.10433782612E+03  0.11595991549E+03  0.18989760747E+03  0.81091166354E+02 0.  0.
          6    2    1    2  502    0 -0.62755668156E+02  0.10682683283E+03 -0.14107869699E+03  0.25444504422E+03  0.17172313672E+03 0.  0.
         24    2    5    5    0    0  0.12604302116E+02  0.46084077249E+02 -0.17334637684E+02  0.97271605977E+02  0.82937717946E+02 0.  0.
          4    1    6    6  501    0 -0.14387152798E+02 -0.21357620471E+01  0.24136892446E+02  0.28180511389E+02  0.00000000000E+00 0. -1.
         -3    1    6    6    0  501  0.26991454914E+02  0.48219839296E+02 -0.41471530131E+02  0.69091094589E+02  0.00000000000E+00 0.  1.
          5    1    5    5  502    0 -0.75359970272E+02  0.60742755580E+02 -0.12374405930E+03  0.15717343824E+03  0.47000000000E+01 0. -1.
         13    1    4    4    0    0  0.52508191182E+02 -0.94599268449E+01  0.46072758727E+02  0.70493258215E+02  0.00000000000E+00 0. -1.
        -14    1    4    4    0    0  0.19270915125E+02 -0.94877899272E+02  0.69887156764E+02  0.11940434925E+03  0.00000000000E+00 0.  1.
         -5    1    3    3    0  504 -0.90234381511E+01 -0.24890067109E+01 -0.36046097599E+02  0.37537031617E+02  0.47000000000E+01 0.  1.
<mgrwt>
<rscale>  2 0.21263694E+03</rscale>
<asrwt>0</asrwt>
<pdfrwt beam="1">  1       21 0.32362677E-01 0.21293261E+03</pdfrwt>
<pdfrwt beam="2">  1       21 0.41772659E-01 0.21293261E+03</pdfrwt>
<totfact> 0.50189805E+04</totfact>
</mgrwt>
</event>
<event>
12    1  0.2791583E-001  0.1865895E+03  0.7546771E-02  0.1162567E+00
         21   -1    0    0  502  503  0.00000000000E+00  0.00000000000E+00  0.13210817395E+04  0.13210817395E+04  0.00000000000E+00 0. -1.
         21   -1    0    0  503  504 -0.00000000000E+00 -0.00000000000E+00 -0.27387042796E+02  0.27387042796E+02  0.00000000000E+00 0. -1.
         -6    2    1    2    0  504 -0.55686019566E+02  0.15579912701E+02  0.80431857060E+03  0.82472779297E+03  0.17292745018E+03 0.  0.
        -24    2    3    3    0    0 -0.89667092993E+02  0.22669439199E+02  0.75086657727E+03  0.76082020087E+03  0.80577106843E+02 0.  0.
          6    2    1    2  502    0  0.55686019566E+02 -0.15579912701E+02  0.48937612614E+03  0.52374098936E+03  0.17740339526E+03 0.  0.
         24    2    5    5    0    0  0.96398851202E+01  0.31582260731E+02  0.11201229919E+03  0.14063517502E+03  0.78365366732E+02 0.  0.
          2    1    6    6  501    0  0.50198990398E+01  0.28611656838E+02  0.56660769255E+00  0.29054213768E+02  0.00000000000E+00 0. -1.
         -1    1    6    6    0  501  0.46199860804E+01  0.29706038926E+01  0.11144569150E+03  0.11158096125E+03  0.00000000000E+00 0.  1.
          5    1    5    5  502    0  0.46046134446E+02 -0.47162173432E+02  0.37736382694E+03  0.38310581435E+03  0.47000000000E+01 0. -1.
         11    1    4    4    0    0  0.38688661096E-01 -0.20502973170E+02  0.78965968364E+02  0.81584297296E+02  0.00000000000E+00 0. -1.
        -12    1    4    4    0    0 -0.89705781654E+02  0.43172412369E+02  0.67190060891E+03  0.67923590357E+03  0.00000000000E+00 0.  1.
         -5    1    3    3    0  504  0.33981073427E+02 -0.70895264972E+01  0.53451993333E+02  0.63907592103E+02  0.47000000000E+01 0.  1.
<mgrwt>
<rscale>  2 0.18551770E+03</rscale>
<asrwt>0</asrwt>
<pdfrwt beam="1">  1       21 0.20324329E+00 0.18658947E+03</pdfrwt>
<pdfrwt beam="2">  1       21 0.42133922E-02 0.18658947E+03</pdfrwt>
<totfact> 0.46157880E+04</totfact>
</mgrwt>
</event>
<event>
12    1  0.2791583E-001  0.2816890E+03  0.7546771E-02  0.1094796E+00
         21   -1    0    0  502  503  0.00000000000E+00  0.00000000000E+00  0.12431443897E+03  0.12431443897E+03  0.00000000000E+00 0. -1.
         21   -1    0    0  503  504 -0.00000000000E+00 -0.00000000000E+00 -0.86417465257E+03  0.86417465257E+03  0.00000000000E+00 0.  1.
         -6    2    1    2    0  504  0.13792327026E+03 -0.17405049794E+03 -0.62276593534E+03  0.68343208207E+03  0.17299016233E+03 0.  0.
        -24    2    3    3    0    0  0.32061742773E+01 -0.60804356393E+02 -0.24958840133E+03  0.27081004386E+03  0.85651972920E+02 0.  0.
          6    2    1    2  502    0 -0.13792327026E+03  0.17405049794E+03 -0.11709427826E+03  0.30505700947E+03  0.17329831134E+03 0.  0.
         24    2    5    5    0    0 -0.12596652051E+03  0.19646464517E+03 -0.12681860527E+03  0.27745247368E+03  0.80193487361E+02 0.  0.
          4    1    6    6  501    0 -0.39216966435E+02  0.98868966459E+02 -0.96018384855E+02  0.14329191608E+03  0.00000000000E+00 0. -1.
         -3    1    6    6    0  501 -0.86749554074E+02  0.97595678716E+02 -0.30800220410E+02  0.13416055759E+03  0.00000000000E+00 0.  1.
          5    1    5    5  502    0 -0.11956749755E+02 -0.22414147231E+02  0.97243270073E+01  0.27604535797E+02  0.47000000000E+01 0. -1.
         11    1    4    4    0    0 -0.24195558740E+02  0.11401895290E+02 -0.48257474356E+02  0.55174379110E+02  0.00000000000E+00 0. -1.
        -12    1    4    4    0    0  0.27401733017E+02 -0.72206251682E+02 -0.20133092698E+03  0.21563566475E+03  0.00000000000E+00 0.  1.
         -5    1    3    3    0  504  0.13471709599E+03 -0.11324614155E+03 -0.37317753400E+03  0.41262203821E+03  0.47000000000E+01 0.  1.
<mgrwt>
<rscale>  2 0.28164165E+03</rscale>
<asrwt>0</asrwt>
<pdfrwt beam="1">  1       21 0.19125298E-01 0.28168903E+03</pdfrwt>
<pdfrwt beam="2">  1       21 0.13294995E+00 0.28168903E+03</pdfrwt>
<totfact> 0.96913903E+03</totfact>
</mgrwt>
</event>
<event>
12    1  0.2791583E-001  0.2520342E+03  0.7546771E-02  0.1112090E+00
         21   -1    0    0  502  503  0.00000000000E+00  0.00000000000E+00  0.30414198350E+02  0.30414198350E+02  0.00000000000E+00 0. -1.
         21   -1    0    0  503  504 -0.00000000000E+00 -0.00000000000E+00 -0.21884409966E+04  0.21884409966E+04  0.00000000000E+00 0. -1.
         -6    2    1    2    0  504  0.12752691371E+03  0.13146668286E+03 -0.13192189285E+04  0.13430013935E+04  0.17253277731E+03 0.  0.
        -24    2    3    3    0    0  0.56977171385E+02  0.57200373720E+02 -0.10284066840E+04  0.10346402378E+04  0.79635627248E+02 0.  0.
          6    2    1    2  502    0 -0.12752691371E+03 -0.13146668286E+03 -0.83880786973E+03  0.87585380141E+03  0.17313184777E+03 0.  0.
         24    2    5    5    0    0 -0.15123748028E+02 -0.20876079171E+02 -0.21611130766E+03  0.23348486405E+03  0.84537246265E+02 0.  0.
          2    1    6    6  501    0 -0.11351312843E+01 -0.44310498216E+02 -0.19205660399E+03  0.19710516967E+03  0.00000000000E+00 0. -1.
         -1    1    6    6    0  501 -0.13988616744E+02  0.23434419045E+02 -0.24054703668E+02  0.36379694377E+02  0.00000000000E+00 0.  1.
          5    1    5    5  502    0 -0.11240316568E+03 -0.11059060369E+03 -0.62269656207E+03  0.64236893737E+03  0.47000000000E+01 0. -1.
         11    1    4    4    0    0  0.44131922463E+02  0.59559275841E+02 -0.44835671101E+03  0.45444325743E+03  0.00000000000E+00 0. -1.
        -12    1    4    4    0    0  0.12845248922E+02 -0.23589021209E+01 -0.58004997297E+03  0.58019698033E+03  0.00000000000E+00 0.  1.
         -5    1    3    3    0  504  0.70549742321E+02  0.74266309143E+02 -0.29081224455E+03  0.30836115578E+03  0.47000000000E+01 0.  1.
<mgrwt>
<rscale>  2 0.25193135E+03</rscale>
<asrwt>0</asrwt>
<pdfrwt beam="1">  1       21 0.46791093E-02 0.25203420E+03</pdfrwt>
<pdfrwt beam="2">  1       21 0.33668310E+00 0.25203420E+03</pdfrwt>
<totfact> 0.59123720E+03</totfact>
</mgrwt>
</event>
<event>
12    1  0.2791583E-001  0.1768452E+03  0.7546771E-02  0.1172015E+00
         21   -1    0    0  502  503  0.00000000000E+00  0.00000000000E+00  0.18204427900E+03  0.18204427900E+03  0.00000000000E+00 0.  1.
         21   -1    0    0  503  504 -0.00000000000E+00 -0.00000000000E+00 -0.16834407225E+03  0.16834407225E+03  0.00000000000E+00 0.  1.
         -6    2    1    2    0  504 -0.22566706254E+02  0.22496209575E+02  0.19524489176E+02  0.17791972822E+03  0.17395082160E+03 0.  0.
        -24    2    3    3    0    0 -0.81406661658E+02  0.26604486496E+02  0.12936737399E+02  0.11838396783E+03  0.80700442389E+02 0.  0.
          6    2    1    2  502    0  0.22566706254E+02 -0.22496209575E+02 -0.58242824283E+01  0.17246862303E+03  0.16939943326E+03 0.  0.
         24    2    5    5    0    0 -0.21138628849E+02  0.30471230301E+02  0.32354122421E+02  0.93757844861E+02  0.79802297772E+02 0.  0.
          4    1    6    6  501    0  0.18389730664E+02  0.32518181951E+02  0.38564768993E+02  0.53692231828E+02  0.00000000000E+00 0. -1.
         -3    1    6    6    0  501 -0.39528359513E+02 -0.20469516497E+01 -0.62106465722E+01  0.40065613032E+02  0.00000000000E+00 0.  1.
          5    1    5    5  502    0  0.43705335103E+02 -0.52967439876E+02 -0.38178404849E+02  0.78710778171E+02  0.47000000000E+01 0. -1.
         13    1    4    4    0    0 -0.63536896559E+02 -0.20556509841E+02  0.12555064413E+02  0.67949517758E+02  0.00000000000E+00 0. -1.
        -14    1    4    4    0    0 -0.17869765099E+02  0.47160996337E+02  0.38167298597E+00  0.50434450076E+02  0.00000000000E+00 0.  1.
         -5    1    3    3    0  504  0.58839955404E+02 -0.41082769212E+01  0.65877517775E+01  0.59535760385E+02  0.47000000000E+01 0.  1.
<mgrwt>
<rscale>  2 0.17571569E+03</rscale>
<asrwt>0</asrwt>
<pdfrwt beam="1">  1       21 0.28006812E-01 0.17684520E+03</pdfrwt>
<pdfrwt beam="2">  1       21 0.25899088E-01 0.17684520E+03</pdfrwt>
<totfact> 0.17322775E+05</totfact>
</mgrwt>
</event>
<event>
12    1  0.2791583E-001  0.1971767E+03  0.7546771E-02  0.1153818E+00
         21   -1    0    0  502  503  0.00000000000E+00  0.00000000000E+00  0.45166404685E+03  0.45166404685E+03  0.00000000000E+00 0. -1.
         21   -1    0    0  503  504 -0.00000000000E+00 -0.00000000000E+00 -0.10721754323E+03  0.10721754323E+03  0.00000000000E+00 0. -1.
         -6    2    1    2    0  504 -0.41771361199E+02 -0.84348661542E+02  0.41455102824E+02  0.20148740021E+03  0.17326021925E+03 0.  0.
        -24    2    3    3    0    0 -0.86303649095E+02 -0.84816715203E+02 -0.10304091236E+01  0.13975853772E+03  0.69922758080E+02 0.  0.
          6    2    1    2  502    0  0.41771361199E+02  0.84348661542E+02  0.30299140080E+03  0.35739418987E+03  0.16452135021E+03 0.  0.
         24    2    5    5    0    0  0.38114032528E+02  0.33550059740E+02  0.28868364330E+03  0.30428415388E+03  0.81684235997E+02 0.  0.
          4    1    6    6  501    0  0.27510648613E+02  0.11025422967E+02  0.27354748296E+03  0.27514836211E+03  0.00000000000E+00 0. -1.
         -3    1    6    6    0  501  0.10603383915E+02  0.22524636773E+02  0.15136160338E+02  0.29135791769E+02  0.00000000000E+00 0.  1.
          5    1    5    5  502    0  0.36573286706E+01  0.50798601802E+02  0.14307757499E+02  0.53110035988E+02  0.47000000000E+01 0. -1.
         11    1    4    4    0    0 -0.32757569543E+02 -0.71718532570E+02 -0.20206575280E+02  0.81393562159E+02  0.00000000000E+00 0. -1.
        -12    1    4    4    0    0 -0.53546079553E+02 -0.13098182633E+02  0.19176166156E+02  0.58364975561E+02  0.00000000000E+00 0.  1.
         -5    1    3    3    0  504  0.44532287897E+02  0.46805366124E+00  0.42485511947E+02  0.61728862495E+02  0.47000000000E+01 0.  1.
<mgrwt>
<rscale>  2 0.19524010E+03</rscale>
<asrwt>0</asrwt>
<pdfrwt beam="1">  1       21 0.69486776E-01 0.19717669E+03</pdfrwt>
<pdfrwt beam="2">  1       21 0.16495007E-01 0.19717669E+03</pdfrwt>
<totfact> 0.61966694E+04</totfact>
</mgrwt>
</event>
<event>
12    1  0.2791583E-001  0.1852648E+03  0.7546771E-02  0.1163509E+00
         21   -1    0    0  502  503  0.00000000000E+00  0.00000000000E+00  0.12624790686E+03  0.12624790686E+03  0.00000000000E+00 0.  1.
         21   -1    0    0  503  504 -0.00000000000E+00 -0.00000000000E+00 -0.39146719101E+03  0.39146719101E+03  0.00000000000E+00 0.  1.
         -6    2    1    2    0  504  0.38536600910E+01 -0.63316900446E+02 -0.27902905921E+03  0.33493319476E+03  0.17406650595E+03 0.  0.
        -24    2    3    3    0    0  0.13895256538E+02 -0.35159935428E+02 -0.28939483246E+03  0.30294589113E+03  0.81225271238E+02 0.  0.
          6    2    1    2  502    0 -0.38536600910E+01  0.63316900446E+02  0.13809775060E+02  0.18278190311E+03  0.17086437206E+03 0.  0.
         24    2    5    5    0    0 -0.61735359263E+01  0.10961282613E+03  0.11254486213E+02  0.13612020511E+03  0.79680377637E+02 0.  0.
          4    1    6    6  501    0  0.19712051369E+02  0.10739357908E+03  0.13612226305E+02  0.11003289736E+03  0.00000000000E+00 0. -1.
         -3    1    6    6    0  501 -0.25885587296E+02  0.22192470517E+01 -0.23577400919E+01  0.26087307746E+02  0.00000000000E+00 0.  1.
          5    1    5    5  502    0  0.23198758353E+01 -0.46295925686E+02  0.25552888466E+01  0.46661697999E+02  0.47000000000E+01 0. -1.
         11    1    4    4    0    0  0.66486611053E+00  0.19297981236E+02 -0.20064266910E+02  0.27846524619E+02  0.00000000000E+00 0. -1.
        -12    1    4    4    0    0  0.13230390427E+02 -0.54457916664E+02 -0.26933056555E+03  0.27509936652E+03  0.00000000000E+00 0.  1.
         -5    1    3    3    0  504 -0.10041596447E+02 -0.28156965018E+02  0.10365773254E+02  0.31987303628E+02  0.47000000000E+01 0.  1.
<mgrwt>
<rscale>  2 0.18450882E+03</rscale>
<asrwt>0</asrwt>
<pdfrwt beam="1">  1       21 0.19422755E-01 0.18526475E+03</pdfrwt>
<pdfrwt beam="2">  1       21 0.60225722E-01 0.18526475E+03</pdfrwt>
<totfact> 0.62868611E+04</totfact>
</mgrwt>
</event>
<event>
12    1  0.2791583E-001  0.1825040E+03  0.7546771E-02  0.1166003E+00
         21   -1    0    0  502  503  0.00000000000E+00  0.00000000000E+00  0.54933863342E+03  0.54933863342E+03  0.00000000000E+00 0.  1.
         21   -1    0    0  503  504 -0.00000000000E+00 -0.00000000000E+00 -0.59805195090E+02  0.59805195090E+02  0.00000000000E+00 0.  1.
         -6    2    1    2    0  504  0.37714947196E+02 -0.43037484381E+02  0.24026397689E+03  0.30020536311E+03  0.17065122076E+03 0.  0.
        -24    2    3    3    0    0  0.72430446755E+02 -0.57080749950E+02  0.23084550934E+03  0.26130579051E+03  0.80539961134E+02 0.  0.
          6    2    1    2  502    0 -0.37714947196E+02  0.43037484381E+02  0.24926946145E+03  0.30893846541E+03  0.17330051556E+03 0.  0.
         24    2    5    5    0    0 -0.11742586235E+02 -0.36550095094E+02  0.76591933538E+02  0.11697918591E+03  0.79649280411E+02 0.  0.
          2    1    6    6  501    0  0.25922934480E+02 -0.31742460852E+02  0.13147419881E+02  0.43039946591E+02  0.00000000000E+00 0. -1.
         -1    1    6    6    0  501 -0.37665520716E+02 -0.48076342421E+01  0.63444513657E+02  0.73939239318E+02  0.00000000000E+00 0.  1.
          5    1    5    5  502    0 -0.25972360961E+02  0.79587579475E+02  0.17267752791E+03  0.19195927950E+03  0.47000000000E+01 0. -1.
         13    1    4    4    0    0 -0.14317340725E+02 -0.14688694443E+02  0.16880627688E+02  0.26565006701E+02  0.00000000000E+00 0. -1.
        -14    1    4    4    0    0  0.86747787480E+02 -0.42392055507E+02  0.21396488165E+03  0.23474078381E+03  0.00000000000E+00 0.  1.
         -5    1    3    3    0  504 -0.34715499559E+02  0.14043265569E+02  0.94184675482E+01  0.38899572600E+02  0.47000000000E+01 0.  1.
<mgrwt>
<rscale>  2 0.18187229E+03</rscale>
<asrwt>0</asrwt>
<pdfrwt beam="1">  1       21 0.84513632E-01 0.18250400E+03</pdfrwt>
<pdfrwt beam="2">  1       21 0.92007996E-02 0.18250400E+03</pdfrwt>
<totfact> 0.11452743E+05</totfact>
</mgrwt>
</event>
<event>
12    1  0.2791583E-001  0.2554312E+03  0.7546771E-02  0.1110167E+00
         21   -1    0    0  502  503  0.00000000000E+00  0.00000000000E+00  0.23219632878E+03  0.23219632878E+03  0.00000000000E+00 0.  1.
         21   -1    0    0  503  504 -0.00000000000E+00 -0.00000000000E+00 -0.27938038752E+03  0.27938038752E+03  0.00000000000E+00 0. -1.
         -6    2    1    2    0  504 -0.86332621870E+02  0.16688910091E+03 -0.17542702374E+02  0.25443137711E+03  0.17065252899E+03 0.  0.
        -24    2    3    3    0    0 -0.25419652188E+02  0.77078120530E+02 -0.67921143280E+02  0.13469633888E+03  0.83322425679E+02 0.  0.
          6    2    1    2  502    0  0.86332621870E+02 -0.16688910091E+03 -0.29641356364E+02  0.25714533919E+03  0.17303127422E+03 0.  0.
         24    2    5    5    0    0  0.32652439720E+02 -0.88987417535E+01  0.13131814726E+02  0.84825434050E+02  0.76665117749E+02 0.  0.
          2    1    6    6  501    0  0.11464652114E+02  0.31992273309E+02 -0.67745644869E+01  0.34653117083E+02  0.00000000000E+00 0. -1.
         -1    1    6    6    0  501  0.21187787605E+02 -0.40891015063E+02  0.19906379212E+02  0.50172316967E+02  0.00000000000E+00 0.  1.
          5    1    5    5  502    0  0.53680182150E+02 -0.15799035916E+03 -0.42773171090E+02  0.17231990514E+03  0.47000000000E+01 0. -1.
         11    1    4    4    0    0 -0.16333798077E+02  0.93954826084E+02 -0.64750160320E+02  0.11526875364E+03  0.00000000000E+00 0. -1.
        -12    1    4    4    0    0 -0.90858541112E+01 -0.16876705554E+02 -0.31709829602E+01  0.19427585239E+02  0.00000000000E+00 0.  1.
         -5    1    3    3    0  504 -0.60912969681E+02  0.89810980383E+02  0.50378440907E+02  0.11973503823E+03  0.47000000000E+01 0.  1.
<mgrwt>
<rscale>  2 0.25502895E+03</rscale>
<asrwt>0</asrwt>
<pdfrwt beam="1">  1       21 0.35722512E-01 0.25543123E+03</pdfrwt>
<pdfrwt beam="2">  1       21 0.42981598E-01 0.25543123E+03</pdfrwt>
<totfact> 0.38194562E+04</totfact>
</mgrwt>
</event>
<event>
12    1  0.2791583E-001  0.2048294E+03  0.7546771E-02  0.1145830E+00
         21   -1    0    0  502  503  0.00000000000E+00  0.00000000000E+00  0.11649550913E+03  0.11649550913E+03  0.00000000000E+00 0.  1.
         21   -1    0    0  503  504 -0.00000000000E+00 -0.00000000000E+00 -0.96473731848E+03  0.96473731848E+03  0.00000000000E+00 0.  1.
         -6    2    1    2    0  504  0.10598287820E+03  0.86887179286E+01 -0.85221189673E+03  0.87636498379E+03  0.17447808916E+03 0.  0.
        -24    2    3    3    0    0  0.10135271401E+03  0.64160898958E+02 -0.53329051449E+03  0.55258799367E+03  0.81029157096E+02 0.  0.
          6    2    1    2  502    0 -0.10598287820E+03 -0.86887179286E+01  0.39700873760E+01  0.20486784382E+03  0.17506343864E+03 0.  0.
         24    2    5    5    0    0  0.59443056909E+01  0.14381945187E+02  0.27949913600E+02  0.88004367682E+02  0.81984120068E+02 0.  0.
          2    1    6    6  501    0  0.30530942467E+02 -0.78150557800E+01 -0.14057426111E+02  0.34508329048E+02  0.00000000000E+00 0. -1.
         -1    1    6    6    0  501 -0.24586636777E+02  0.22197000967E+02  0.42007339711E+02  0.53496038634E+02  0.00000000000E+00 0.  1.
          5    1    5    5  502    0 -0.11192718389E+03 -0.23070663116E+02 -0.23979826224E+02  0.11686347614E+03  0.47000000000E+01 0. -1.
         13    1    4    4    0    0  0.26104056435E+02  0.43978922518E+02 -0.99681639820E+02  0.11203569389E+03  0.00000000000E+00 0. -1.
        -14    1    4    4    0    0  0.75248657580E+02  0.20181976440E+02 -0.43360887467E+03  0.44055229978E+03  0.00000000000E+00 0.  1.
         -5    1    3    3    0  504  0.46301641850E+01 -0.55472181029E+02 -0.31892138223E+03  0.32377699013E+03  0.47000000000E+01 0.  1.
<mgrwt>
<rscale>  2 0.20470424E+03</rscale>
<asrwt>0</asrwt>
<pdfrwt beam="1">  1       21 0.17922386E-01 0.20482937E+03</pdfrwt>
<pdfrwt beam="2">  1       21 0.14842113E+00 0.20482937E+03</pdfrwt>
<totfact> 0.86167330E+03</totfact>
</mgrwt>
</event>
<event>
12    1  0.2791583E-001  0.1762756E+03  0.7546771E-02  0.1171569E+00
         21   -1    0    0  502  503  0.00000000000E+00  0.00000000000E+00  0.95743135226E+02  0.95743135226E+02  0.00000000000E+00 0.  1.
         21   -1    0    0  503  504 -0.00000000000E+00 -0.00000000000E+00 -0.48494503642E+03  0.48494503642E+03  0.00000000000E+00 0.  1.
         -6    2    1    2    0  504  0.29370339461E+02 -0.16044426816E+02 -0.27356642379E+02  0.17838570958E+03  0.17306945146E+03 0.  0.
        -24    2    3    3    0    0  0.50048195282E+02 -0.24700034236E+02 -0.77246549904E+02  0.12348957006E+03  0.78534902424E+02 0.  0.
          6    2    1    2  502    0 -0.29370339461E+02  0.16044426816E+02 -0.36184525882E+03  0.40230246207E+03  0.17261297514E+03 0.  0.
         24    2    5    5    0    0  0.24744995959E+02  0.59786374712E+02 -0.22861251005E+03  0.25192000672E+03  0.83745355740E+02 0.  0.
          2    1    6    6  501    0  0.29514382483E+02  0.58275664703E+02 -0.80261174554E+02  0.10348433703E+03  0.00000000000E+00 0. -1.
         -1    1    6    6    0  501 -0.47693865240E+01  0.15107100094E+01 -0.14835133550E+03  0.14843566969E+03  0.00000000000E+00 0.  1.
          5    1    5    5  502    0 -0.54115335420E+02 -0.43741947897E+02 -0.13323274877E+03  0.15038245535E+03  0.47000000000E+01 0. -1.
         13    1    4    4    0    0 -0.19784878306E+02 -0.31229094121E+01 -0.31289464196E+02  0.37151373359E+02  0.00000000000E+00 0. -1.
        -14    1    4    4    0    0  0.69833073589E+02 -0.21577124823E+02 -0.45957085708E+02  0.86338196699E+02  0.00000000000E+00 0.  1.
         -5    1    3    3    0  504 -0.20677855822E+02  0.86556074200E+01  0.49889907525E+02  0.54896139519E+02  0.47000000000E+01 0.  1.
<mgrwt>
<rscale>  2 0.17616342E+03</rscale>
<asrwt>0</asrwt>
<pdfrwt beam="1">  1       21 0.14729713E-01 0.17627557E+03</pdfrwt>
<pdfrwt beam="2">  1       21 0.74606929E-01 0.17627557E+03</pdfrwt>
<totfact> 0.65709352E+04</totfact>
</mgrwt>
</event>
<event>
12    1  0.2791583E-001  0.2398238E+03  0.7546771E-02  0.1121438E+00
         21   -1    0    0  502  503  0.00000000000E+00  0.00000000000E+00  0.70640956074E+03  0.70640956074E+03  0.00000000000E+00 0.  1.
         21   -1    0    0  503  504 -0.00000000000E+00 -0.00000000000E+00 -0.78677616120E+02  0.78677616120E+02  0.00000000000E+00 0. -1.
         -6    2    1    2    0  504  0.13344197361E+03  0.74526220234E+02  0.28452408272E+03  0.36639027287E+03  0.17299410562E+03 0.  0.
        -24    2    3    3    0    0  0.15071136496E+03  0.10054116540E+03  0.25632092595E+03  0.32405214228E+03  0.80541494693E+02 0.  0.
          6    2    1    2  502    0 -0.13344197361E+03 -0.74526220234E+02  0.34320786190E+03  0.41869690400E+03  0.18480947791E+03 0.  0.
         24    2    5    5    0    0  0.93349776671E+01 -0.61495576193E+01  0.12377250691E+03  0.14807800070E+03  0.80513986087E+02 0.  0.
          2    1    6    6  501    0  0.18706960487E+02 -0.33851927159E+01 -0.44165632821E+01  0.19517067700E+02  0.00000000000E+00 0. -1.
         -1    1    6    6    0  501 -0.93719828196E+01 -0.27643649034E+01  0.12818907020E+03  0.12856093300E+03  0.00000000000E+00 0.  1.
          5    1    5    5  502    0 -0.14277695127E+03 -0.68376662614E+02  0.21943535499E+03  0.27061890330E+03  0.47000000000E+01 0. -1.
         11    1    4    4    0    0  0.58580704097E+01  0.21941120516E+02  0.45852556455E+01  0.23167959076E+02  0.00000000000E+00 0. -1.
        -12    1    4    4    0    0  0.14485329456E+03  0.78600044881E+02  0.25173567030E+03  0.30088418320E+03  0.00000000000E+00 0.  1.
         -5    1    3    3    0  504 -0.17269391358E+02 -0.26014945163E+02  0.28203156777E+02  0.42338130590E+02  0.47000000000E+01 0.  1.
<mgrwt>
<rscale>  2 0.23754603E+03</rscale>
<asrwt>0</asrwt>
<pdfrwt beam="1">  1       21 0.10867839E+00 0.23982381E+03</pdfrwt>
<pdfrwt beam="2">  1       21 0.12104249E-01 0.23982381E+03</pdfrwt>
<totfact> 0.37923984E+04</totfact>
</mgrwt>
</event>
<event>
12    1  0.2791583E-001  0.2807571E+03  0.7546771E-02  0.1095979E+00
         21   -1    0    0  502  503  0.00000000000E+00  0.00000000000E+00  0.79005429620E+03  0.79005429620E+03  0.00000000000E+00 0. -1.
         21   -1    0    0  503  504 -0.00000000000E+00 -0.00000000000E+00 -0.98751326310E+02  0.98751326310E+02  0.00000000000E+00 0. -1.
         -6    2    1    2    0  504  0.15149160564E+03  0.15168053904E+03  0.30278639560E+03  0.40946263465E+03  0.17327248861E+03 0.  0.
        -24    2    3    3    0    0  0.29368672837E+02  0.74030412042E+02  0.20546979566E+03  0.23500300160E+03  0.81642837894E+02 0.  0.
          6    2    1    2  502    0 -0.15149160564E+03 -0.15168053904E+03  0.38851657429E+03  0.47934298787E+03  0.18129500548E+03 0.  0.
         24    2    5    5    0    0 -0.81672206760E+02 -0.83666147263E+00  0.16490747154E+03  0.20068236149E+03  0.80049276594E+02 0.  0.
          4    1    6    6  501    0  0.85187451037E+01  0.68914830574E+01 -0.16839073649E+01  0.11085896485E+02  0.00000000000E+00 0. -1.
         -3    1    6    6    0  501 -0.90190951864E+02 -0.77281445301E+01  0.16659137891E+03  0.18959646500E+03  0.00000000000E+00 0.  1.
          5    1    5    5  502    0 -0.69819398885E+02 -0.15084387757E+03  0.22360910275E+03  0.27866062638E+03  0.47000000000E+01 0. -1.
         11    1    4    4    0    0  0.33148921955E+00  0.97717071631E+01 -0.64141454847E+01  0.11693477168E+02  0.00000000000E+00 0. -1.
        -12    1    4    4    0    0  0.29037183618E+02  0.64258704879E+02  0.21188394115E+03  0.22330952443E+03  0.00000000000E+00 0.  1.
         -5    1    3    3    0  504  0.12212293281E+03  0.77650126996E+02  0.97316599936E+02  0.17445963305E+03  0.47000000000E+01 0.  1.
<mgrwt>
<rscale>  2 0.27947023E+03</rscale>
<asrwt>0</asrwt>
<pdfrwt beam="1">  1       21 0.12154681E+00 0.28075714E+03</pdfrwt>
<pdfrwt beam="2">  1       21 0.15192512E-01 0.28075714E+03</pdfrwt>
<totfact> 0.18675582E+04</totfact>
</mgrwt>
</event>
<event>
12    1  0.2791583E-001  0.2334856E+03  0.7546771E-02  0.1124586E+00
         21   -1    0    0  502  503  0.00000000000E+00  0.00000000000E+00  0.63305692307E+02  0.63305692307E+02  0.00000000000E+00 0.  1.
         21   -1    0    0  503  504 -0.00000000000E+00 -0.00000000000E+00 -0.95636261221E+03  0.95636261221E+03  0.00000000000E+00 0.  1.
         -6    2    1    2    0  504 -0.15406509904E+03 -0.66658820650E+01 -0.61213462143E+03  0.65438364558E+03  0.17242004561E+03 0.  0.
        -24    2    3    3    0    0 -0.50311727345E+02  0.53078466830E+02 -0.24258486816E+03  0.26589521654E+03  0.80648957630E+02 0.  0.
          6    2    1    2  502    0  0.15406509904E+03  0.66658820650E+01 -0.28092229848E+03  0.36528465894E+03  0.17531416243E+03 0.  0.
         24    2    5    5    0    0  0.68724014990E+02 -0.63790165232E+02 -0.14669791720E+03  0.19125756404E+03  0.79164395263E+02 0.  0.
          4    1    6    6  501    0  0.19799106143E+02 -0.47781157389E+02 -0.21725952347E+02  0.56098668530E+02  0.00000000000E+00 0. -1.
         -3    1    6    6    0  501  0.48924908848E+02 -0.16009007843E+02 -0.12497196485E+03  0.13515889551E+03  0.00000000000E+00 0.  1.
          5    1    5    5  502    0  0.85341084047E+02  0.70456047297E+02 -0.13422438128E+03  0.17402709489E+03  0.47000000000E+01 0. -1.
         13    1    4    4    0    0  0.14431237967E+02 -0.25752495480E+01 -0.90112532827E+01  0.17207417738E+02  0.00000000000E+00 0. -1.
        -14    1    4    4    0    0 -0.64742965312E+02  0.55653716378E+02 -0.23357361488E+03  0.24868779880E+03  0.00000000000E+00 0.  1.
         -5    1    3    3    0  504 -0.10375337169E+03 -0.59744348895E+02 -0.36954975327E+03  0.38848842904E+03  0.47000000000E+01 0.  1.
<mgrwt>
<rscale>  2 0.23294246E+03</rscale>
<asrwt>0</asrwt>
<pdfrwt beam="1">  1       21 0.97393380E-02 0.23348564E+03</pdfrwt>
<pdfrwt beam="2">  1       21 0.14713270E+00 0.23348564E+03</pdfrwt>
<totfact> 0.26081997E+04</totfact>
</mgrwt>
</event>
<event>
12    1  0.2791583E-001  0.2725773E+03  0.7546771E-02  0.1099929E+00
         21   -1    0    0  502  503  0.00000000000E+00  0.00000000000E+00  0.91183102269E+03  0.91183102269E+03  0.00000000000E+00 0. -1.
         21   -1    0    0  503  504 -0.00000000000E+00 -0.00000000000E+00 -0.81660051649E+02  0.81660051649E+02  0.00000000000E+00 0.  1.
         -6    2    1    2    0  504 -0.11183524313E+03 -0.17778696569E+03  0.45011792991E+03  0.52579598956E+03  0.17245273277E+03 0.  0.
        -24    2    3    3    0    0 -0.11703785547E+03 -0.77380992005E+02  0.33972055853E+03  0.37640356561E+03  0.81141288993E+02 0.  0.
          6    2    1    2  502    0  0.11183524313E+03  0.17778696569E+03  0.38005304114E+03  0.46769508478E+03  0.17373270122E+03 0.  0.
         24    2    5    5    0    0  0.42130581069E+02  0.15635284442E+03  0.18150806952E+03  0.25612864788E+03  0.80221612701E+02 0.  0.
          2    1    6    6  501    0 -0.60008610866E+01 -0.57691396336E+01  0.39424659004E+00  0.83335908387E+01  0.00000000000E+00 0. -1.
         -1    1    6    6    0  501  0.48131442156E+02  0.16212198406E+03  0.18111382293E+03  0.24779505705E+03  0.00000000000E+00 0.  1.
          5    1    5    5  502    0  0.69704662064E+02  0.21434121268E+02  0.19854497161E+03  0.21156643690E+03  0.47000000000E+01 0. -1.
         13    1    4    4    0    0 -0.41417109132E+02 -0.75300255404E+02  0.19521424366E+03  0.21329347463E+03  0.00000000000E+00 0. -1.
        -14    1    4    4    0    0 -0.75620746340E+02 -0.20807366006E+01  0.14450631486E+03  0.16311009097E+03  0.00000000000E+00 0.  1.
         -5    1    3    3    0  504  0.52026123389E+01 -0.10040597369E+03  0.11039737138E+03  0.14939242396E+03  0.47000000000E+01 0.  1.
<mgrwt>
<rscale>  2 0.27237355E+03</rscale>
<asrwt>0</asrwt>
<pdfrwt beam="1">  1       21 0.14028169E+00 0.27257729E+03</pdfrwt>
<pdfrwt beam="2">  1       21 0.12563086E-01 0.27257729E+03</pdfrwt>
<totfact> 0.18368584E+04</totfact>
</mgrwt>
</event>
<event>
12    1  0.2791583E-001  0.2254382E+03  0.7546771E-02  0.1129899E+00
         21   -1    0    0  502  503  0.00000000000E+00  0.00000000000E+00  0.17117606314E+02  0.17117606314E+02  0.00000000000E+00 0.  1.
         21   -1    0    0  503  504 -0.00000000000E+00 -0.00000000000E+00 -0.36890177670E+04  0.36890177670E+04  0.00000000000E+00 0. -1.
         -6    2    1    2    0  504  0.81040362933E+02  0.11977465386E+03 -0.26547533330E+04  0.26643052256E+04  0.17289756545E+03 0.  0.
        -24    2    3    3    0    0  0.22688337742E+02  0.64318188109E+02 -0.72575645447E+03  0.73362362946E+03  0.82641445435E+02 0.  0.
          6    2    1    2  502    0 -0.81040362933E+02 -0.11977465386E+03 -0.10171468278E+04  0.10418301477E+04  0.17294183824E+03 0.  0.
         24    2    5    5    0    0 -0.37190953456E+02 -0.31944423440E+02 -0.22422278330E+03  0.24283856434E+03  0.79316445775E+02 0.  0.
          4    1    6    6  501    0 -0.25450492758E+02  0.21834620074E+02 -0.50634046704E+02  0.60731251436E+02  0.00000000000E+00 0. -1.
         -3    1    6    6    0  501 -0.11740460698E+02 -0.53779043514E+02 -0.17358873660E+03  0.18210731290E+03  0.00000000000E+00 0.  1.
          5    1    5    5  502    0 -0.43849409476E+02 -0.87830230424E+02 -0.79292404445E+03  0.79899158341E+03  0.47000000000E+01 0. -1.
         11    1    4    4    0    0  0.60600612651E+01  0.14264465739E+02 -0.54770964001E+03  0.54792887229E+03  0.00000000000E+00 0. -1.
        -12    1    4    4    0    0  0.16628276477E+02  0.50053722370E+02 -0.17804681446E+03  0.18569475717E+03  0.00000000000E+00 0.  1.
         -5    1    3    3    0  504  0.58352025191E+02  0.55456465755E+02 -0.19289968785E+04  0.19306815961E+04  0.47000000000E+01 0.  1.
<mgrwt>
<rscale>  2 0.22542972E+03</rscale>
<asrwt>0</asrwt>
<pdfrwt beam="1">  1       21 0.26334735E-02 0.22543821E+03</pdfrwt>
<pdfrwt beam="2">  1       21 0.56754214E+00 0.22543821E+03</pdfrwt>
<totfact> 0.45276570E+02</totfact>
</mgrwt>
</event>
<event>
12    1  0.2791583E-001  0.3378994E+03  0.7546771E-02  0.1068129E+00
         21   -1    0    0  502  503  0.00000000000E+00  0.00000000000E+00  0.22870742221E+04  0.22870742221E+04  0.00000000000E+00 0.  1.
         21   -1    0    0  503  504 -0.00000000000E+00 -0.00000000000E+00 -0.49397407004E+02  0.49397407004E+02  0.00000000000E+00 0. -1.
         -6    2    1    2    0  504 -0.17697854105E+03 -0.22484394514E+03  0.11557383907E+04  0.12029961093E+04  0.17202385724E+03 0.  0.
        -24    2    3    3    0    0 -0.19250562409E+03 -0.15749442725E+03  0.97824185882E+03  0.10124596122E+04  0.79084904431E+02 0.  0.
          6    2    1    2  502    0  0.17697854105E+03  0.22484394514E+03  0.10819384243E+04  0.11334755198E+04  0.17972144079E+03 0.  0.
         24    2    5    5    0    0  0.30530467931E+02  0.13225725904E+03  0.62857581371E+03  0.64811062688E+03  0.80720127974E+02 0.  0.
          2    1    6    6  501    0  0.50509731605E+02  0.90524297179E+02  0.32790323699E+03  0.34389884297E+03  0.00000000000E+00 0. -1.
         -1    1    6    6    0  501 -0.19979263673E+02  0.41732961858E+02  0.30067257671E+03  0.30421178391E+03  0.00000000000E+00 0.  1.
          5    1    5    5  502    0  0.14644807311E+03  0.92586686103E+02  0.45336261063E+03  0.48536489292E+03  0.47000000000E+01 0. -1.
         11    1    4    4    0    0 -0.16773332107E+03 -0.12143397521E+03  0.89241900683E+03  0.91612900898E+03  0.00000000000E+00 0. -1.
        -12    1    4    4    0    0 -0.24772303025E+02 -0.36060452033E+02  0.85822851983E+02  0.96330603239E+02  0.00000000000E+00 0.  1.
         -5    1    3    3    0  504  0.15527083047E+02 -0.67349517894E+02  0.17749653190E+03  0.19053649705E+03  0.47000000000E+01 0.  1.
<mgrwt>
<rscale>  2 0.33688722E+03</rscale>
<asrwt>0</asrwt>
<pdfrwt beam="1">  1       21 0.35185749E+00 0.33789939E+03</pdfrwt>
<pdfrwt beam="2">  1       21 0.75996028E-02 0.33789939E+03</pdfrwt>
<totfact> 0.19298112E+03</totfact>
</mgrwt>
</event>
<event>
12    1  0.2791583E-001  0.1876310E+03  0.7546771E-02  0.1160670E+00
         21   -1    0    0  502  503  0.00000000000E+00  0.00000000000E+00  0.25174247104E+02  0.25174247104E+02  0.00000000000E+00 0. -1.
         21   -1    0    0  503  504 -0.00000000000E+00 -0.00000000000E+00 -0.14122400948E+04  0.14122400948E+04  0.00000000000E+00 0. -1.
         -6    2    1    2    0  504  0.70682030570E+02 -0.14815815077E+02 -0.76851158550E+03  0.79102840764E+03  0.17291739884E+03 0.  0.
        -24    2    3    3    0    0  0.82573493338E+02 -0.67457355628E+02 -0.51856682504E+03  0.53528046149E+03  0.79023691321E+02 0.  0.
          6    2    1    2  502    0 -0.70682030570E+02  0.14815815077E+02 -0.61855426218E+03  0.64638593425E+03  0.17317604601E+03 0.  0.
         24    2    5    5    0    0 -0.45520395357E+02  0.26871442849E+02 -0.16208521442E+03  0.18904084834E+03  0.81674015275E+02 0.  0.
          2    1    6    6  501    0 -0.66628977139E+02  0.27512846491E+02 -0.14479777992E+03  0.16174910938E+03  0.00000000000E+00 0. -1.
         -1    1    6    6    0  501  0.21108581781E+02 -0.64140364268E+00 -0.17287434505E+02  0.27291738955E+02  0.00000000000E+00 0.  1.
          5    1    5    5  502    0 -0.25161635212E+02 -0.12055627772E+02 -0.45646904775E+03  0.45734508591E+03  0.47000000000E+01 0. -1.
         11    1    4    4    0    0  0.56960888988E+02  0.37064524179E+01 -0.22146561556E+03  0.22870351886E+03  0.00000000000E+00 0. -1.
        -12    1    4    4    0    0  0.25612604350E+02 -0.71163808046E+02 -0.29710120948E+03  0.30657694263E+03  0.00000000000E+00 0.  1.
         -5    1    3    3    0  504 -0.11891462768E+02  0.52641540551E+02 -0.24994476046E+03  0.25574794615E+03  0.47000000000E+01 0.  1.
<mgrwt>
<rscale>  2 0.18757132E+03</rscale>
<asrwt>0</asrwt>
<pdfrwt beam="1">  1       21 0.38729606E-02 0.18763102E+03</pdfrwt>
<pdfrwt beam="2">  1       21 0.21726773E+00 0.18763102E+03</pdfrwt>
<totfact> 0.43406178E+04</totfact>
</mgrwt>
</event>
<event>
12    1  0.2791583E-001  0.3357335E+03  0.7546771E-02  0.1069123E+00
         21   -1    0    0  502  503  0.00000000000E+00  0.00000000000E+00  0.27448798653E+03  0.27448798653E+03  0.00000000000E+00 0.  1.
         21   -1    0    0  503  504 -0.00000000000E+00 -0.00000000000E+00 -0.45358139047E+03  0.45358139047E+03  0.00000000000E+00 0. -1.
         -6    2    1    2    0  504 -0.25378306570E+03  0.13031918544E+03 -0.20909539508E+03  0.39552230547E+03  0.17699738797E+03 0.  0.
        -24    2    3    3    0    0 -0.12122816430E+03  0.83960595956E+01 -0.14257581201E+03  0.20347284456E+03  0.79413945045E+02 0.  0.
          6    2    1    2  502    0  0.25378306570E+03 -0.13031918544E+03  0.30001991138E+02  0.33254707154E+03  0.16822158239E+03 0.  0.
         24    2    5    5    0    0  0.13548260677E+03 -0.38831880401E+02 -0.41698210066E+02  0.16663162795E+03  0.78510553671E+02 0.  0.
          2    1    6    6  501    0  0.12959721168E+03 -0.23884652843E+02 -0.57789571767E+02  0.14389422686E+03  0.00000000000E+00 0. -1.
         -1    1    6    6    0  501  0.58853950831E+01 -0.14947227558E+02  0.16091361701E+02  0.22737401090E+02  0.00000000000E+00 0.  1.
          5    1    5    5  502    0  0.11830045894E+03 -0.91487305042E+02  0.71700201204E+02  0.16591544359E+03  0.47000000000E+01 0. -1.
         13    1    4    4    0    0 -0.46787056034E+02 -0.82647002140E+01 -0.11132010625E+03  0.12103511861E+03  0.00000000000E+00 0. -1.
        -14    1    4    4    0    0 -0.74441108264E+02  0.16660759810E+02 -0.31255705761E+02  0.82437725949E+02  0.00000000000E+00 0.  1.
         -5    1    3    3    0  504 -0.13255490141E+03  0.12192312585E+03 -0.66519583063E+02  0.19204946090E+03  0.47000000000E+01 0.  1.
<mgrwt>
<rscale>  2 0.33459208E+03</rscale>
<asrwt>0</asrwt>
<pdfrwt beam="1">  1       21 0.42228921E-01 0.33573354E+03</pdfrwt>
<pdfrwt beam="2">  1       21 0.69781752E-01 0.33573354E+03</pdfrwt>
<totfact> 0.93259522E+03</totfact>
</mgrwt>
</event>
<event>
12    1  0.2791583E-001  0.1803005E+03  0.7546771E-02  0.1167971E+00
         21   -1    0    0  502  503  0.00000000000E+00  0.00000000000E+00  0.64908807184E+02  0.64908807184E+02  0.00000000000E+00 0.  1.
         21   -1    0    0  503  504 -0.00000000000E+00 -0.00000000000E+00 -0.70237777580E+03  0.70237777580E+03  0.00000000000E+00 0.  1.
         -6    2    1    2    0  504 -0.29453085425E+01  0.43782211922E+02 -0.10939263113E+03  0.20927862904E+03  0.17293131556E+03 0.  0.
        -24    2    3    3    0    0 -0.23267989241E+02  0.64982809179E+02 -0.13415195944E+03  0.17057990796E+03  0.79602713313E+02 0.  0.
          6    2    1    2  502    0  0.29453085425E+01 -0.43782211922E+02 -0.52807633749E+03  0.55800795395E+03  0.17487910548E+03 0.  0.
         24    2    5    5    0    0  0.24964247103E+02 -0.87336707243E+02 -0.28176473689E+03  0.30686392694E+03  0.80766259239E+02 0.  0.
          2    1    6    6  501    0 -0.29104573438E+02 -0.38501418278E+02 -0.12504991903E+03  0.13404073132E+03  0.00000000000E+00 0. -1.
         -1    1    6    6    0  501  0.54068820542E+02 -0.48835288965E+02 -0.15671481787E+03  0.17282319562E+03  0.00000000000E+00 0.  1.
          5    1    5    5  502    0 -0.22018938561E+02  0.43554495321E+02 -0.24631160059E+03  0.25114402701E+03  0.47000000000E+01 0. -1.
         13    1    4    4    0    0 -0.37994786927E+02  0.12340076139E+02 -0.95824440396E+02  0.10381813276E+03  0.00000000000E+00 0. -1.
        -14    1    4    4    0    0  0.14726797686E+02  0.52642733039E+02 -0.38327519042E+02  0.66761775200E+02  0.00000000000E+00 0.  1.
         -5    1    3    3    0  504  0.20322680699E+02 -0.21200597257E+02  0.24759328306E+02  0.38698721077E+02  0.47000000000E+01 0.  1.
<mgrwt>
<rscale>  2 0.17982645E+03</rscale>
<asrwt>0</asrwt>
<pdfrwt beam="1">  1       21 0.99859700E-02 0.18030047E+03</pdfrwt>
<pdfrwt beam="2">  1       21 0.10805812E+00 0.18030047E+03</pdfrwt>
<totfact> 0.55803246E+04</totfact>
</mgrwt>
</event>
<event>
12    1  0.2791583E-001  0.2048672E+03  0.7546771E-02  0.1145842E+00
         21   -1    0    0  502  503  0.00000000000E+00  0.00000000000E+00  0.81078866691E+02  0.81078866691E+02  0.00000000000E+00 0.  1.
         21   -1    0    0  503  504 -0.00000000000E+00 -0.00000000000E+00 -0.75013669634E+03  0.75013669634E+03  0.00000000000E+00 0.  1.
         -6    2    1    2    0  504 -0.69588295817E+02 -0.85898751395E+02 -0.56718850565E+03  0.60305336665E+03  0.17248024721E+03 0.  0.
        -24    2    3    3    0    0 -0.63600618852E+02 -0.77864108063E+02 -0.57529892277E+03  0.58933197333E+03  0.78964968169E+02 0.  0.
          6    2    1    2  502    0  0.69588295817E+02  0.85898751395E+02 -0.10186932400E+03  0.22816219638E+03  0.17163770646E+03 0.  0.
         24    2    5    5    0    0  0.10507453378E+03  0.85913869731E+02 -0.50169654887E+02  0.16527961454E+03  0.79865549822E+02 0.  0.
          4    1    6    6  501    0 -0.47876571622E+01  0.15956155378E+02  0.12417011004E+02  0.20777456962E+02  0.00000000000E+00 0. -1.
         -3    1    6    6    0  501  0.10986219094E+03  0.69957714353E+02 -0.62586665890E+02  0.14450215757E+03  0.00000000000E+00 0.  1.
          5    1    5    5  502    0 -0.35486237965E+02 -0.15118335974E-01 -0.51699669111E+02  0.62882581846E+02  0.47000000000E+01 0. -1.
         13    1    4    4    0    0 -0.51959808620E+02 -0.31912611493E+02 -0.15814847695E+03  0.16949683550E+03  0.00000000000E+00 0. -1.
        -14    1    4    4    0    0 -0.11640810232E+02 -0.45951496570E+02 -0.41715044583E+03  0.41983513783E+03  0.00000000000E+00 0.  1.
         -5    1    3    3    0  504 -0.59876769650E+01 -0.80346433323E+01  0.81104171195E+01  0.13721393324E+02  0.47000000000E+01 0.  1.
<mgrwt>
<rscale>  2 0.20468974E+03</rscale>
<asrwt>0</asrwt>
<pdfrwt beam="1">  1       21 0.12473671E-01 0.20486718E+03</pdfrwt>
<pdfrwt beam="2">  1       21 0.11540565E+00 0.20486718E+03</pdfrwt>
<totfact> 0.31598988E+04</totfact>
</mgrwt>
</event>
<event>
12    1  0.2791583E-001  0.1747729E+03  0.7546771E-02  0.1173171E+00
         21   -1    0    0  502  503  0.00000000000E+00  0.00000000000E+00  0.54582761124E+03  0.54582761124E+03  0.00000000000E+00 0.  1.
         21   -1    0    0  503  504 -0.00000000000E+00 -0.00000000000E+00 -0.57069155583E+02  0.57069155583E+02  0.00000000000E+00 0.  1.
         -6    2    1    2    0  504  0.13006244957E+02 -0.16239208619E+02  0.19702584256E+03  0.26281812857E+03  0.17268848185E+03 0.  0.
        -24    2    3    3    0    0  0.43095918742E+02 -0.18023301439E+02  0.21042100921E+03  0.22950008624E+03  0.78811108730E+02 0.  0.
          6    2    1    2  502    0 -0.13006244957E+02  0.16239208619E+02  0.29173261310E+03  0.34007863825E+03  0.17353007908E+03 0.  0.
         24    2    5    5    0    0  0.36224024656E+02  0.61209307381E+02  0.17309607917E+03  0.20390725209E+03  0.80976265386E+02 0.  0.
          2    1    6    6  501    0  0.34639072997E+02  0.51560498924E+02  0.48184628079E+02  0.78613668089E+02  0.00000000000E+00 0. -1.
         -1    1    6    6    0  501  0.15849516592E+01  0.96488084572E+01  0.12491145109E+03  0.12529358400E+03  0.00000000000E+00 0.  1.
          5    1    5    5  502    0 -0.49230269613E+02 -0.44970098761E+02  0.11863653392E+03  0.13617138617E+03  0.47000000000E+01 0. -1.
         13    1    4    4    0    0  0.21292248610E+02  0.28719270526E+01  0.19388097821E+03  0.19506778700E+03  0.00000000000E+00 0. -1.
        -14    1    4    4    0    0  0.21803670132E+02 -0.20895228491E+02  0.16540031000E+02  0.34432299232E+02  0.00000000000E+00 0.  1.
         -5    1    3    3    0  504 -0.30089673785E+02  0.17840928193E+01 -0.13395166646E+02  0.33318042337E+02  0.47000000000E+01 0.  1.
<mgrwt>
<rscale>  2 0.17456362E+03</rscale>
<asrwt>0</asrwt>
<pdfrwt beam="1">  1       21 0.83973475E-01 0.17477289E+03</pdfrwt>
<pdfrwt beam="2">  1       21 0.87798705E-02 0.17477289E+03</pdfrwt>
<totfact> 0.12651719E+05</totfact>
</mgrwt>
</event>
<event>
12    1  0.2791583E-001  0.1876557E+03  0.7546771E-02  0.1160807E+00
         21   -1    0    0  502  503  0.00000000000E+00  0.00000000000E+00  0.11922646986E+03  0.11922646986E+03  0.00000000000E+00 0. -1.
         21   -1    0    0  503  504 -0.00000000000E+00 -0.00000000000E+00 -0.52121558236E+03  0.52121558236E+03  0.00000000000E+00 0. -1.
         -6    2    1    2    0  504 -0.65313403951E+02 -0.27168157201E+02 -0.41218740110E+03  0.45250940762E+03  0.17280729401E+03 0.  0.
        -24    2    3    3    0    0 -0.58121479923E+02  0.45684467104E+02 -0.21151887773E+03  0.23885273230E+03  0.82735815266E+02 0.  0.
          6    2    1    2  502    0  0.65313403951E+02  0.27168157201E+02  0.10198288599E+02  0.18793264460E+03  0.17381232498E+03 0.  0.
         24    2    5    5    0    0 -0.26239703137E+02 -0.16685969505E+02 -0.15547760056E+02  0.83098943591E+02  0.75476870525E+02 0.  0.
          2    1    6    6  501    0 -0.32618391541E+02 -0.38900790343E+02  0.64707431262E+01  0.51177157723E+02  0.00000000000E+00 0. -1.
         -1    1    6    6    0  501  0.63786884045E+01  0.22214820838E+02 -0.22018503183E+02  0.31921785868E+02  0.00000000000E+00 0.  1.
          5    1    5    5  502    0  0.91553107088E+02  0.43854126707E+02  0.25746048655E+02  0.10483370101E+03  0.47000000000E+01 0. -1.
         11    1    4    4    0    0 -0.29802042714E+02  0.66219270239E+02 -0.16796624675E+03  0.18299129364E+03  0.00000000000E+00 0. -1.
        -12    1    4    4    0    0 -0.28319437209E+02 -0.20534803135E+02 -0.43552630972E+02  0.55861438652E+02  0.00000000000E+00 0.  1.
         -5    1    3    3    0  504 -0.71919240284E+01 -0.72852624306E+02 -0.20066852337E+03  0.21365667532E+03  0.47000000000E+01 0.  1.
<mgrwt>
<rscale>  2 0.18742267E+03</rscale>
<asrwt>0</asrwt>
<pdfrwt beam="1">  1       21 0.18342534E-01 0.18765573E+03</pdfrwt>
<pdfrwt beam="2">  1       21 0.80187011E-01 0.18765573E+03</pdfrwt>
<totfact> 0.37190561E+04</totfact>
</mgrwt>
</event>
<event>
12    1  0.2791583E-001  0.1916908E+03  0.7546771E-02  0.1156993E+00
         21   -1    0    0  502  503  0.00000000000E+00  0.00000000000E+00  0.37563090489E+02  0.37563090489E+02  0.00000000000E+00 0.  1.
         21   -1    0    0  503  504 -0.00000000000E+00 -0.00000000000E+00 -0.98874131060E+03  0.98874131060E+03  0.00000000000E+00 0.  1.
         -6    2    1    2    0  504  0.77360980052E+02 -0.28037693754E+02 -0.42027336100E+03  0.46192538295E+03  0.17313153365E+03 0.  0.
        -24    2    3    3    0    0 -0.14418091604E+02 -0.42891447883E+01 -0.28358630599E+03  0.29551374700E+03  0.81736794616E+02 0.  0.
          6    2    1    2  502    0 -0.77360980052E+02  0.28037693754E+02 -0.53090485911E+03  0.56437901813E+03  0.17289555570E+03 0.  0.
         24    2    5    5    0    0  0.79804528034E+01  0.24227853321E+02 -0.39036556682E+03  0.39984617119E+03  0.82710388438E+02 0.  0.
          2    1    6    6  501    0  0.43080201896E+02  0.25065166709E+01 -0.24331909077E+03  0.24711609894E+03  0.00000000000E+00 0. -1.
         -1    1    6    6    0  501 -0.35099749093E+02  0.21721336650E+02 -0.14704647604E+03  0.15273007225E+03  0.00000000000E+00 0.  1.
          5    1    5    5  502    0 -0.85341432855E+02  0.38098404326E+01 -0.14053929229E+03  0.16453284694E+03  0.47000000000E+01 0. -1.
         13    1    4    4    0    0 -0.70084104623E+00  0.16675851682E+02 -0.75089263467E+01  0.18301890131E+02  0.00000000000E+00 0. -1.
        -14    1    4    4    0    0 -0.13717250558E+02 -0.20964996470E+02 -0.27607737964E+03  0.27721185687E+03  0.00000000000E+00 0.  1.
         -5    1    3    3    0  504  0.91779071656E+02 -0.23748548965E+02 -0.13668705501E+03  0.16641163595E+03  0.47000000000E+01 0.  1.
<mgrwt>
<rscale>  2 0.19163750E+03</rscale>
<asrwt>0</asrwt>
<pdfrwt beam="1">  1       21 0.57789377E-02 0.19169080E+03</pdfrwt>
<pdfrwt beam="2">  1       21 0.15211403E+00 0.19169080E+03</pdfrwt>
<totfact> 0.60600013E+04</totfact>
</mgrwt>
</event>
<event>
12    1  0.2791583E-001  0.2023145E+03  0.7546771E-02  0.1147919E+00
         21   -1    0    0  502  503  0.00000000000E+00  0.00000000000E+00  0.21759817033E+03  0.21759817033E+03  0.00000000000E+00 0. -1.
         21   -1    0    0  503  504 -0.00000000000E+00 -0.00000000000E+00 -0.18877430407E+03  0.18877430407E+03  0.00000000000E+00 0. -1.
         -6    2    1    2    0  504  0.83600711390E+02 -0.62987140030E+02  0.30622507247E+02  0.20461894181E+03  0.17313207283E+03 0.  0.
        -24    2    3    3    0    0  0.71393523346E+02 -0.45876520100E+02 -0.44493018267E+02  0.12647662979E+03  0.82553127961E+02 0.  0.
          6    2    1    2  502    0 -0.83600711390E+02  0.62987140030E+02 -0.17986409803E+01  0.20175353259E+03  0.17246679115E+03 0.  0.
         24    2    5    5    0    0 -0.85553538729E+01  0.61009982077E+02 -0.48778255083E+02  0.11306932329E+03  0.81301547999E+02 0.  0.
          2    1    6    6  501    0 -0.17967489518E+02  0.36674752249E+02  0.15511883806E+02  0.43686229768E+02  0.00000000000E+00 0. -1.
         -1    1    6    6    0  501  0.94121356450E+01  0.24335229828E+02 -0.64290138889E+02  0.69383093521E+02  0.00000000000E+00 0.  1.
          5    1    5    5  502    0 -0.75045357518E+02  0.19771579527E+01  0.46979614103E+02  0.88684209303E+02  0.47000000000E+01 0. -1.
         11    1    4    4    0    0  0.40999824327E+02 -0.56389801739E+02  0.22298984578E+01  0.69755055603E+02  0.00000000000E+00 0. -1.
        -12    1    4    4    0    0  0.30393699019E+02  0.10513281640E+02 -0.46722916725E+02  0.56721574186E+02  0.00000000000E+00 0.  1.
         -5    1    3    3    0  504  0.12207188044E+02 -0.17110619930E+02  0.75115525514E+02  0.78142312019E+02  0.47000000000E+01 0.  1.
<mgrwt>
<rscale>  2 0.20217213E+03</rscale>
<asrwt>0</asrwt>
<pdfrwt beam="1">  1       21 0.33476642E-01 0.20231454E+03</pdfrwt>
<pdfrwt beam="2">  1       21 0.29042201E-01 0.20231454E+03</pdfrwt>
<totfact> 0.97164854E+04</totfact>
</mgrwt>
</event>
<event>
12    1  0.2791583E-001  0.2019488E+03  0.7546771E-02  0.1148827E+00
         21   -1    0    0  502  503  0.00000000000E+00  0.00000000000E+00  0.36868396409E+03  0.36868396409E+03  0.00000000000E+00 0.  1.
         21   -1    0    0  503  504 -0.00000000000E+00 -0.00000000000E+00 -0.11371958519E+03  0.11371958519E+03  0.00000000000E+00 0.  1.
         -6    2    1    2    0  504  0.78091623879E+02 -0.58016214934E+02  0.17896825661E+03  0.26983878611E+03  0.17697217494E+03 0.  0.
        -24    2    3    3    0    0  0.47334825600E+02 -0.65362067413E+02  0.30542042079E+02  0.11800870560E+03  0.80501258945E+02 0.  0.
          6    2    1    2  502    0 -0.78091623879E+02  0.58016214934E+02  0.75996122288E+02  0.21256476317E+03  0.17304388179E+03 0.  0.
         24    2    5    5    0    0 -0.10857936706E+03  0.37363018336E+02  0.15527112111E+02  0.14160950821E+03  0.81404468642E+02 0.  0.
          2    1    6    6  501    0 -0.16801232367E+02  0.23343451699E+02 -0.27037808605E+02  0.39474564474E+02  0.00000000000E+00 0. -1.
         -1    1    6    6    0  501 -0.91778134698E+02  0.14019566638E+02  0.42564920716E+02  0.10213494374E+03  0.00000000000E+00 0.  1.
          5    1    5    5  502    0  0.30487743186E+02  0.20653196597E+02  0.60469010177E+02  0.70955254957E+02  0.47000000000E+01 0. -1.
         11    1    4    4    0    0 -0.16471678997E+01 -0.63942400327E+02  0.25071605741E+02  0.68701740416E+02  0.00000000000E+00 0. -1.
        -12    1    4    4    0    0  0.48981993500E+02 -0.14196670855E+01  0.54704363379E+01  0.49306965184E+02  0.00000000000E+00 0.  1.
         -5    1    3    3    0  504  0.30756798279E+02  0.73458524792E+01  0.14842621453E+03  0.15183008051E+03  0.47000000000E+01 0.  1.
<mgrwt>
<rscale>  2 0.20108495E+03</rscale>
<asrwt>0</asrwt>
<pdfrwt beam="1">  1       21 0.56720609E-01 0.20194884E+03</pdfrwt>
<pdfrwt beam="2">  1       21 0.17495321E-01 0.20194884E+03</pdfrwt>
<totfact> 0.86116819E+04</totfact>
</mgrwt>
</event>
<event>
12    1  0.2791583E-001  0.3130488E+03  0.7546771E-02  0.1078919E+00
         21   -1    0    0  502  503  0.00000000000E+00  0.00000000000E+00  0.58659690791E+03  0.58659690791E+03  0.00000000000E+00 0.  1.
         21   -1    0    0  503  504 -0.00000000000E+00 -0.00000000000E+00 -0.21164784251E+03  0.21164784251E+03  0.00000000000E+00 0. -1.
         -6    2    1    2    0  504  0.66811060376E+02 -0.25259158326E+03  0.41084712920E+01  0.31307578900E+03  0.17243359418E+03 0.  0.
        -24    2    3    3    0    0  0.98566185124E+02 -0.17657976661E+03 -0.37360474957E+02  0.22072890101E+03  0.80185633562E+02 0.  0.
          6    2    1    2  502    0 -0.66811060376E+02  0.25259158326E+03  0.37084059410E+03  0.48516896142E+03  0.17204635762E+03 0.  0.
         24    2    5    5    0    0 -0.26750853929E+02  0.44937761491E+02  0.67302607186E+02  0.11519284147E+03  0.77490252274E+02 0.  0.
          4    1    6    6  501    0 -0.90152056244E+01 -0.21854728434E+02  0.11101907438E+02  0.26118105524E+02  0.00000000000E+00 0. -1.
         -3    1    6    6    0  501 -0.17735648305E+02  0.66792489926E+02  0.56200699748E+02  0.89074735944E+02  0.00000000000E+00 0.  1.
          5    1    5    5  502    0 -0.40060206448E+02  0.20765382176E+03  0.30353798692E+03  0.36997611995E+03  0.47000000000E+01 0. -1.
         13    1    4    4    0    0  0.85451194656E+02 -0.74308221966E+02 -0.80124555799E+01  0.11352452583E+03  0.00000000000E+00 0. -1.
        -14    1    4    4    0    0  0.13114990468E+02 -0.10227154464E+03 -0.29348019377E+02  0.10720437519E+03  0.00000000000E+00 0.  1.
         -5    1    3    3    0  504 -0.31755124747E+02 -0.76011816650E+02  0.41468946249E+02  0.92346887988E+02  0.47000000000E+01 0.  1.
<mgrwt>
<rscale>  2 0.31299553E+03</rscale>
<asrwt>0</asrwt>
<pdfrwt beam="1">  1       21 0.90245677E-01 0.31304883E+03</pdfrwt>
<pdfrwt beam="2">  1       21 0.32561207E-01 0.31304883E+03</pdfrwt>
<totfact> 0.88488687E+03</totfact>
</mgrwt>
</event>
<event>
12    1  0.2791583E-001  0.2222105E+03  0.7546771E-02  0.1132427E+00
         21   -1    0    0  502  503  0.00000000000E+00  0.00000000000E+00  0.91248241819E+03  0.91248241819E+03  0.00000000000E+00 0.  1.
         21   -1    0    0  503  504 -0.00000000000E+00 -0.00000000000E+00 -0.55441936280E+02  0.55441936280E+02  0.00000000000E+00 0.  1.
         -6    2    1    2    0  504 -0.57172225690E+01  0.13747165368E+03  0.34806959284E+03  0.41295274109E+03  0.17448891859E+03 0.  0.
        -24    2    3    3    0    0  0.34096935683E+02  0.19216537129E+02  0.90204340144E+02  0.12644616466E+03  0.79498007858E+02 0.  0.
          6    2    1    2  502    0  0.57172225690E+01 -0.13747165368E+03  0.50897088907E+03  0.55497161338E+03  0.17323678461E+03 0.  0.
         24    2    5    5    0    0  0.55864379856E+02 -0.29188822382E+02  0.25700649138E+03  0.27613822829E+03  0.78912408564E+02 0.  0.
          4    1    6    6  501    0  0.39379721395E+02 -0.56486339322E+01  0.23885998363E+03  0.24215028660E+03  0.00000000000E+00 0. -1.
         -3    1    6    6    0  501  0.16484658462E+02 -0.23540188450E+02  0.18146507749E+02  0.33987941691E+02  0.00000000000E+00 0.  1.
          5    1    5    5  502    0 -0.50147157287E+02 -0.10828283130E+03  0.25196439769E+03  0.27883338509E+03  0.47000000000E+01 0. -1.
         11    1    4    4    0    0  0.51204826565E+02  0.26281002046E+02  0.91274906692E+02  0.10790613478E+03  0.00000000000E+00 0. -1.
        -12    1    4    4    0    0 -0.17107890882E+02 -0.70644649179E+01 -0.10705665482E+01  0.18540029874E+02  0.00000000000E+00 0.  1.
         -5    1    3    3    0  504 -0.39814158252E+02  0.11825511655E+03  0.25786525270E+03  0.28650657643E+03  0.47000000000E+01 0.  1.
<mgrwt>
<rscale>  2 0.22196467E+03</rscale>
<asrwt>0</asrwt>
<pdfrwt beam="1">  1       21 0.14038190E+00 0.22221054E+03</pdfrwt>
<pdfrwt beam="2">  1       21 0.85295293E-02 0.22221054E+03</pdfrwt>
<totfact> 0.37493964E+04</totfact>
</mgrwt>
</event>
<event>
12    1  0.2791583E-001  0.2100568E+03  0.7546771E-02  0.1141831E+00
         21   -1    0    0  502  503  0.00000000000E+00  0.00000000000E+00  0.10072978236E+03  0.10072978236E+03  0.00000000000E+00 0. -1.
         21   -1    0    0  503  504 -0.00000000000E+00 -0.00000000000E+00 -0.51278701676E+03  0.51278701676E+03  0.00000000000E+00 0. -1.
         -6    2    1    2    0  504 -0.10579781199E+03  0.48555367650E+02 -0.85749131168E+02  0.22544354752E+03  0.17297710505E+03 0.  0.
        -24    2    3    3    0    0 -0.13510924108E+03  0.69800524332E+01 -0.70488362171E+02  0.17212706056E+03  0.79723820904E+02 0.  0.
          6    2    1    2  502    0  0.10579781199E+03 -0.48555367650E+02 -0.32630810323E+03  0.38807325161E+03  0.17485156456E+03 0.  0.
         24    2    5    5    0    0  0.37612024762E+02 -0.16261500143E+02 -0.46774905948E+02  0.98499264788E+02  0.76387908361E+02 0.  0.
          2    1    6    6  501    0  0.42516260227E+02 -0.38039775317E+02 -0.50104888754E+02  0.75928629429E+02  0.00000000000E+00 0. -1.
         -1    1    6    6    0  501 -0.49042354651E+01  0.21778275173E+02  0.33299828068E+01  0.22570635359E+02  0.00000000000E+00 0.  1.
          5    1    5    5  502    0  0.68185787230E+02 -0.32293867507E+02 -0.27953319728E+03  0.28957398682E+03  0.47000000000E+01 0. -1.
         13    1    4    4    0    0 -0.63957638836E+02  0.35746191342E+02 -0.59930882233E+02  0.94657701251E+02  0.00000000000E+00 0. -1.
        -14    1    4    4    0    0 -0.71151602244E+02 -0.28766138909E+02 -0.10557479938E+02  0.77469359313E+02  0.00000000000E+00 0.  1.
         -5    1    3    3    0  504  0.29311429089E+02  0.41575315217E+02 -0.15260768996E+02  0.53316486953E+02  0.47000000000E+01 0.  1.
<mgrwt>
<rscale>  2 0.20966631E+03</rscale>
<asrwt>0</asrwt>
<pdfrwt beam="1">  1       21 0.15496890E-01 0.21005683E+03</pdfrwt>
<pdfrwt beam="2">  1       21 0.78890310E-01 0.21005683E+03</pdfrwt>
<totfact> 0.52023649E+04</totfact>
</mgrwt>
</event>
<event>
12    1  0.2791583E-001  0.2315900E+03  0.7546771E-02  0.1125842E+00
         21   -1    0    0  502  503  0.00000000000E+00  0.00000000000E+00  0.15165031415E+03  0.15165031415E+03  0.00000000000E+00 0. -1.
         21   -1    0    0  503  504 -0.00000000000E+00 -0.00000000000E+00 -0.80585663002E+03  0.80585663002E+03  0.00000000000E+00 0.  1.
         -6    2    1    2    0  504 -0.10674567073E+03 -0.10902155746E+03 -0.68626060971E+03  0.72370915593E+03  0.17181670387E+03 0.  0.
        -24    2    3    3    0    0 -0.57413657778E+02 -0.13897571263E+03 -0.44854926346E+03  0.47904679052E+03  0.75357872562E+02 0.  0.
          6    2    1    2  502    0  0.10674567073E+03  0.10902155746E+03  0.32054293841E+02  0.23379778824E+03  0.17422281660E+03 0.  0.
         24    2    5    5    0    0  0.55008279998E+01  0.10162552551E+03  0.12466344229E+02  0.13030384042E+03  0.80409418262E+02 0.  0.
          4    1    6    6  501    0  0.13529823198E+02  0.26622182978E+02  0.40075182484E+02  0.49978165166E+02  0.00000000000E+00 0. -1.
         -3    1    6    6    0  501 -0.80289951979E+01  0.75003342529E+02 -0.27608838255E+02  0.80325675249E+02  0.00000000000E+00 0.  1.
          5    1    5    5  502    0  0.10124484273E+03  0.73960319545E+01  0.19587949612E+02  0.10349394783E+03  0.47000000000E+01 0. -1.
         13    1    4    4    0    0 -0.13853113433E+02 -0.28625794311E+02 -0.28973413424E+02  0.43020966251E+02  0.00000000000E+00 0. -1.
        -14    1    4    4    0    0 -0.43560544345E+02 -0.11034991832E+03 -0.41957585003E+03  0.43602582427E+03  0.00000000000E+00 0.  1.
         -5    1    3    3    0  504 -0.49332012947E+02  0.29954155165E+02 -0.23771134625E+03  0.24466236542E+03  0.47000000000E+01 0.  1.
<mgrwt>
<rscale>  2 0.23113752E+03</rscale>
<asrwt>0</asrwt>
<pdfrwt beam="1">  1       21 0.23330817E-01 0.23159000E+03</pdfrwt>
<pdfrwt beam="2">  1       21 0.12397794E+00 0.23159000E+03</pdfrwt>
<totfact> 0.81827623E+03</totfact>
</mgrwt>
</event>
<event>
12    1  0.2791583E-001  0.1947106E+03  0.7546771E-02  0.1154825E+00
         21   -1    0    0  502  503  0.00000000000E+00  0.00000000000E+00  0.18591456947E+03  0.18591456947E+03  0.00000000000E+00 0.  1.
         21   -1    0    0  503  504 -0.00000000000E+00 -0.00000000000E+00 -0.22971408413E+03  0.22971408413E+03  0.00000000000E+00 0.  1.
         -6    2    1    2    0  504  0.79256726600E+02  0.33013362485E+02 -0.94819775473E+02  0.21434455560E+03  0.17199211575E+03 0.  0.
        -24    2    3    3    0    0  0.20749308480E+02  0.13904151924E+02 -0.12059819691E+03  0.14744988529E+03  0.81078260544E+02 0.  0.
          6    2    1    2  502    0 -0.79256726600E+02 -0.33013362485E+02  0.51020260812E+02  0.20128409799E+03  0.17475900629E+03 0.  0.
         24    2    5    5    0    0 -0.84356450909E+02 -0.14601665713E+02 -0.27087638330E+02  0.12073639986E+03  0.80711329127E+02 0.  0.
          2    1    6    6  501    0  0.62245592304E+01  0.17762898549E+02 -0.14432007198E+02  0.23718105621E+02  0.00000000000E+00 0. -1.
         -1    1    6    6    0  501 -0.90581010140E+02 -0.32364564262E+02 -0.12655631132E+02  0.97018294239E+02  0.00000000000E+00 0.  1.
          5    1    5    5  502    0  0.50997243089E+01 -0.18411696772E+02  0.78107899143E+02  0.80547698133E+02  0.47000000000E+01 0. -1.
         11    1    4    4    0    0  0.66056863396E+01 -0.38526151561E+01 -0.12422555527E+03  0.12446070190E+03  0.00000000000E+00 0. -1.
        -12    1    4    4    0    0  0.14143622140E+02  0.17756767080E+02  0.36273583630E+01  0.22989183393E+02  0.00000000000E+00 0.  1.
         -5    1    3    3    0  504  0.58507418120E+02  0.19109210561E+02  0.25778421434E+02  0.66894670303E+02  0.47000000000E+01 0.  1.
<mgrwt>
<rscale>  2 0.19408775E+03</rscale>
<asrwt>0</asrwt>
<pdfrwt beam="1">  1       21 0.28602241E-01 0.19471061E+03</pdfrwt>
<pdfrwt beam="2">  1       21 0.35340628E-01 0.19471061E+03</pdfrwt>
<totfact> 0.90181710E+04</totfact>
</mgrwt>
</event>
<event>
12    1  0.2791583E-001  0.1787027E+03  0.7546771E-02  0.1169224E+00
         21   -1    0    0  502  503  0.00000000000E+00  0.00000000000E+00  0.29147292452E+02  0.29147292452E+02  0.00000000000E+00 0.  1.
         21   -1    0    0  503  504 -0.00000000000E+00 -0.00000000000E+00 -0.11704188278E+04  0.11704188278E+04  0.00000000000E+00 0.  1.
         -6    2    1    2    0  504 -0.38773597449E+02  0.12521208301E+02 -0.72722703763E+03  0.74886167992E+03  0.17399562887E+03 0.  0.
        -24    2    3    3    0    0 -0.39537919514E+02  0.46062344642E+01 -0.17889166119E+03  0.20044850898E+03  0.81196759990E+02 0.  0.
          6    2    1    2  502    0  0.38773597449E+02 -0.12521208301E+02 -0.41404449773E+03  0.45070444035E+03  0.17332476435E+03 0.  0.
         24    2    5    5    0    0  0.32827766054E+02  0.58412362241E+02 -0.28676733873E+03  0.30479868466E+03  0.78594308456E+02 0.  0.
          4    1    6    6  501    0 -0.22742268096E+02  0.33889108144E+02 -0.88952447233E+02  0.97868382420E+02  0.00000000000E+00 0. -1.
         -3    1    6    6    0  501  0.55570034150E+02  0.24523254097E+02 -0.19781489150E+03  0.20693030224E+03  0.00000000000E+00 0.  1.
          5    1    5    5  502    0  0.59458313952E+01 -0.70933570542E+02 -0.12727715900E+03  0.14590575569E+03  0.47000000000E+01 0. -1.
         13    1    4    4    0    0 -0.20631026136E+02  0.36694552808E+02 -0.14167413981E+03  0.14779611408E+03  0.00000000000E+00 0. -1.
        -14    1    4    4    0    0 -0.18906893378E+02 -0.32088318343E+02 -0.37217521384E+02  0.52652394905E+02  0.00000000000E+00 0.  1.
         -5    1    3    3    0  504  0.76432206471E+00  0.79149738371E+01 -0.54833537644E+03  0.54841317093E+03  0.47000000000E+01 0.  1.
<mgrwt>
<rscale>  2 0.17853918E+03</rscale>
<asrwt>0</asrwt>
<pdfrwt beam="1">  1       21 0.44841987E-02 0.17870269E+03</pdfrwt>
<pdfrwt beam="2">  1       21 0.18006444E+00 0.17870269E+03</pdfrwt>
<totfact> 0.59271703E+04</totfact>
</mgrwt>
</event>
<event>
12    1  0.2791583E-001  0.1913888E+03  0.7546771E-02  0.1158873E+00
         21   -1    0    0  502  503  0.00000000000E+00  0.00000000000E+00  0.32739639444E+03  0.32739639444E+03  0.00000000000E+00 0.  1.
         21   -1    0    0  503  504 -0.00000000000E+00 -0.00000000000E+00 -0.18433276647E+03  0.18433276647E+03  0.00000000000E+00 0.  1.
         -6    2    1    2    0  504 -0.63479257918E+02  0.24400172357E+02 -0.94263348880E+02  0.20684596879E+03  0.17109848411E+03 0.  0.
        -24    2    3    3    0    0 -0.69653856262E+02 -0.37804145900E+02 -0.88560990487E+02  0.14390067694E+03  0.81139032825E+02 0.  0.
          6    2    1    2  502    0  0.63479257918E+02 -0.24400172357E+02  0.23732697686E+03  0.30488319212E+03  0.17889852514E+03 0.  0.
         24    2    5    5    0    0  0.64182627311E+02 -0.58472272956E+02  0.24318302563E+03  0.26998640036E+03  0.78843237339E+02 0.  0.
          2    1    6    6  501    0 -0.56969862314E+01 -0.17810369854E+02  0.12742557173E+03  0.12879029955E+03  0.00000000000E+00 0. -1.
         -1    1    6    6    0  501  0.69879613543E+02 -0.40661903102E+02  0.11575745390E+03  0.14119610081E+03  0.00000000000E+00 0.  1.
          5    1    5    5  502    0 -0.70336939321E+00  0.34072100599E+02 -0.58560487737E+01  0.34896791758E+02  0.47000000000E+01 0. -1.
         13    1    4    4    0    0 -0.29549789775E+01  0.21676049034E+02 -0.71627400224E+01  0.23019292932E+02  0.00000000000E+00 0. -1.
        -14    1    4    4    0    0 -0.66698877285E+02 -0.59480194934E+02 -0.81398250465E+02  0.12088138401E+03  0.00000000000E+00 0.  1.
         -5    1    3    3    0  504  0.61745983441E+01  0.62204318257E+02 -0.57023583932E+01  0.62945291847E+02  0.47000000000E+01 0.  1.
<mgrwt>
<rscale>  2 0.18954477E+03</rscale>
<asrwt>0</asrwt>
<pdfrwt beam="1">  1       21 0.50368676E-01 0.19138878E+03</pdfrwt>
<pdfrwt beam="2">  1       21 0.28358887E-01 0.19138878E+03</pdfrwt>
<totfact> 0.44634437E+04</totfact>
</mgrwt>
</event>
<event>
12    1  0.2791583E-001  0.1985267E+03  0.7546771E-02  0.1151146E+00
         21   -1    0    0  502  503  0.00000000000E+00  0.00000000000E+00  0.98173904132E+03  0.98173904132E+03  0.00000000000E+00 0.  1.
         21   -1    0    0  503  504 -0.00000000000E+00 -0.00000000000E+00 -0.40030170266E+02  0.40030170266E+02  0.00000000000E+00 0.  1.
         -6    2    1    2    0  504 -0.82332160160E+02 -0.44281387253E+02  0.48654167369E+03  0.52548609846E+03  0.17513826988E+03 0.  0.
        -24    2    3    3    0    0 -0.10226401381E+02  0.33598462805E+02  0.16784866819E+03  0.18955182922E+03  0.80766853087E+02 0.  0.
          6    2    1    2  502    0  0.82332160160E+02  0.44281387253E+02  0.45516719736E+03  0.49628311313E+03  0.17429952659E+03 0.  0.
         24    2    5    5    0    0  0.19605040639E+01  0.59574020231E+02  0.34589695741E+03  0.35969781719E+03  0.78644180239E+02 0.  0.
          2    1    6    6  501    0 -0.37490368970E+02  0.28515990605E+02  0.19740902545E+03  0.20295076451E+03  0.00000000000E+00 0. -1.
         -1    1    6    6    0  501  0.39450873034E+02  0.31058029627E+02  0.14848793196E+03  0.15674705268E+03  0.00000000000E+00 0.  1.
          5    1    5    5  502    0  0.80371656096E+02 -0.15292632978E+02  0.10927023995E+03  0.13658529593E+03  0.47000000000E+01 0. -1.
         11    1    4    4    0    0 -0.35204375906E+02  0.35938937016E+02  0.15143291857E+03  0.15957093753E+03  0.00000000000E+00 0. -1.
        -12    1    4    4    0    0  0.24977974525E+02 -0.23404742108E+01  0.16415749625E+02  0.29980891692E+02  0.00000000000E+00 0.  1.
         -5    1    3    3    0  504 -0.72105758778E+02 -0.77879850058E+02  0.31869300550E+03  0.33593426924E+03  0.47000000000E+01 0.  1.
<mgrwt>
<rscale>  2 0.19834153E+03</rscale>
<asrwt>0</asrwt>
<pdfrwt beam="1">  1       21 0.15103676E+00 0.19852667E+03</pdfrwt>
<pdfrwt beam="2">  1       21 0.61584884E-02 0.19852667E+03</pdfrwt>
<totfact> 0.55167604E+04</totfact>
</mgrwt>
</event>
<event>
12    1  0.2791583E-001  0.1950436E+03  0.7546771E-02  0.1154005E+00
         21   -1    0    0  502  503  0.00000000000E+00  0.00000000000E+00  0.10447059136E+03  0.10447059136E+03  0.00000000000E+00 0. -1.
         21   -1    0    0  503  504 -0.00000000000E+00 -0.00000000000E+00 -0.73933261115E+03  0.73933261115E+03  0.00000000000E+00 0. -1.
         -6    2    1    2    0  504  0.70784862789E+02 -0.55617230569E+02 -0.61806317618E+03  0.64810809433E+03  0.17302670038E+03 0.  0.
        -24    2    3    3    0    0  0.61826859102E+02  0.30659978085E+02 -0.30079851791E+03  0.31916591711E+03  0.81391274140E+02 0.  0.
          6    2    1    2  502    0 -0.70784862789E+02  0.55617230569E+02 -0.16798843614E+02  0.19569510818E+03  0.17294681576E+03 0.  0.
         24    2    5    5    0    0 -0.66498944453E+02  0.10425105492E+03 -0.23490583918E+02  0.14619271071E+03  0.74364703084E+02 0.  0.
          2    1    6    6  501    0 -0.49790592276E+02  0.61180605583E+02  0.21446745010E+02  0.81744311424E+02  0.00000000000E+00 0. -1.
         -1    1    6    6    0  501 -0.16708352177E+02  0.43070449341E+02 -0.44937328927E+02  0.64448399282E+02  0.00000000000E+00 0.  1.
          5    1    5    5  502    0 -0.42859183359E+01 -0.48633824355E+02  0.66917403035E+01  0.49502397473E+02  0.47000000000E+01 0. -1.
         11    1    4    4    0    0 -0.10456665291E+02  0.81778679913E+01 -0.14849690992E+03  0.14908907281E+03  0.00000000000E+00 0. -1.
        -12    1    4    4    0    0  0.72283524394E+02  0.22482110094E+02 -0.15230160799E+03  0.17007684431E+03  0.00000000000E+00 0.  1.
         -5    1    3    3    0  504  0.89580036863E+01 -0.86277208654E+02 -0.31726465827E+03  0.32894217721E+03  0.47000000000E+01 0.  1.
<mgrwt>
<rscale>  2 0.19502590E+03</rscale>
<asrwt>0</asrwt>
<pdfrwt beam="1">  1       21 0.16072399E-01 0.19504362E+03</pdfrwt>
<pdfrwt beam="2">  1       21 0.11374348E+00 0.19504362E+03</pdfrwt>
<totfact> 0.20792777E+04</totfact>
</mgrwt>
</event>
<event>
12    1  0.2791583E-001  0.3455467E+03  0.7546771E-02  0.1064641E+00
         21   -1    0    0  502  503  0.00000000000E+00  0.00000000000E+00  0.19079030058E+03  0.19079030058E+03  0.00000000000E+00 0. -1.
         21   -1    0    0  503  504 -0.00000000000E+00 -0.00000000000E+00 -0.88465710038E+03  0.88465710038E+03  0.00000000000E+00 0.  1.
         -6    2    1    2    0  504  0.23843576691E+03 -0.17856666812E+03 -0.63893987222E+03  0.72556241491E+03  0.17163620746E+03 0.  0.
        -24    2    3    3    0    0  0.10350277278E+03 -0.78890228598E+02 -0.17286134477E+03  0.23019024245E+03  0.78549417950E+02 0.  0.
          6    2    1    2  502    0 -0.23843576691E+03  0.17856666812E+03 -0.54926927585E+02  0.34988498606E+03  0.17511386635E+03 0.  0.
         24    2    5    5    0    0 -0.24691205959E+03  0.12168423763E+03 -0.37854622013E+02  0.28971014038E+03  0.82014475348E+02 0.  0.
          4    1    6    6  501    0 -0.14055769002E+03  0.25499400725E+02 -0.69530651419E+01  0.14302107809E+03  0.00000000000E+00 0. -1.
         -3    1    6    6    0  501 -0.10635436957E+03  0.96184836910E+02 -0.30901556871E+02  0.14668906229E+03  0.00000000000E+00 0.  1.
          5    1    5    5  502    0  0.84762926824E+01  0.56882430483E+02 -0.17072305572E+02  0.60174845682E+02  0.47000000000E+01 0. -1.
         13    1    4    4    0    0  0.43285897938E+02  0.96043915179E+00 -0.91638057434E+02  0.10135149221E+03  0.00000000000E+00 0. -1.
        -14    1    4    4    0    0  0.60216874842E+02 -0.79850667750E+02 -0.81223287337E+02  0.12883875023E+03  0.00000000000E+00 0.  1.
         -5    1    3    3    0  504  0.13493299413E+03 -0.99676439519E+02 -0.46607852745E+03  0.49537217246E+03  0.47000000000E+01 0.  1.
<mgrwt>
<rscale>  2 0.34510856E+03</rscale>
<asrwt>0</asrwt>
<pdfrwt beam="1">  1       21 0.29352354E-01 0.34554672E+03</pdfrwt>
<pdfrwt beam="2">  1       21 0.13610109E+00 0.34554672E+03</pdfrwt>
<totfact> 0.38804984E+03</totfact>
</mgrwt>
</event>
<event>
12    1  0.2791583E-001  0.2538468E+03  0.7546771E-02  0.1111006E+00
         21   -1    0    0  502  503  0.00000000000E+00  0.00000000000E+00  0.41139349088E+03  0.41139349088E+03  0.00000000000E+00 0. -1.
         21   -1    0    0  503  504 -0.00000000000E+00 -0.00000000000E+00 -0.55849318976E+03  0.55849318976E+03  0.00000000000E+00 0.  1.
         -6    2    1    2    0  504  0.17543422657E+03 -0.64096767774E+02 -0.48515645068E+03  0.54755361333E+03  0.17190873841E+03 0.  0.
        -24    2    3    3    0    0  0.32593430725E+02 -0.31832787742E+02 -0.95629296703E+02  0.13138303406E+03  0.77723105630E+02 0.  0.
          6    2    1    2  502    0 -0.17543422657E+03  0.64096767774E+02  0.33805675180E+03  0.42233306730E+03  0.17087214169E+03 0.  0.
         24    2    5    5    0    0 -0.17783120552E+02  0.16645616578E+02  0.15527731324E+03  0.17629263131E+03  0.79841918318E+02 0.  0.
          4    1    6    6  501    0  0.70100105345E+01  0.19787416327E+01  0.14577856378E+03  0.14596042383E+03  0.00000000000E+00 0. -1.
         -3    1    6    6    0  501 -0.24793131087E+02  0.14666874945E+02  0.94987494617E+01  0.30332207488E+02  0.00000000000E+00 0.  1.
          5    1    5    5  502    0 -0.15765110602E+03  0.47451151197E+02  0.18277943856E+03  0.24604043599E+03  0.47000000000E+01 0. -1.
         13    1    4    4    0    0  0.19384446375E+02  0.50293880249E+00  0.87798561136E+01  0.21286041954E+02  0.00000000000E+00 0. -1.
        -14    1    4    4    0    0  0.13208984351E+02 -0.32335726544E+02 -0.10440915282E+03  0.11009699211E+03  0.00000000000E+00 0.  1.
         -5    1    3    3    0  504  0.14284079585E+03 -0.32263980033E+02 -0.38952715398E+03  0.41617057927E+03  0.47000000000E+01 0.  1.
<mgrwt>
<rscale>  2 0.25367137E+03</rscale>
<asrwt>0</asrwt>
<pdfrwt beam="1">  1       21 0.63291307E-01 0.25384676E+03</pdfrwt>
<pdfrwt beam="2">  1       21 0.85922029E-01 0.25384676E+03</pdfrwt>
<totfact> 0.25745545E+03</totfact>
</mgrwt>
</event>
<event>
12    1  0.2791583E-001  0.2170561E+03  0.7546771E-02  0.1137116E+00
         21   -1    0    0  502  503  0.00000000000E+00  0.00000000000E+00  0.75818884133E+03  0.75818884133E+03  0.00000000000E+00 0.  1.
         21   -1    0    0  503  504 -0.00000000000E+00 -0.00000000000E+00 -0.80866033362E+02  0.80866033362E+02  0.00000000000E+00 0.  1.
         -6    2    1    2    0  504  0.11245824860E+03  0.49369109087E+02  0.12567356986E+03  0.24623936818E+03  0.17249873526E+03 0.  0.
        -24    2    3    3    0    0  0.23525744108E+02  0.61605135590E+02  0.11792458279E+03  0.15601272299E+03  0.78007109562E+02 0.  0.
          6    2    1    2  502    0 -0.11245824860E+03 -0.49369109087E+02  0.55164923811E+03  0.59281550651E+03  0.17896696972E+03 0.  0.
         24    2    5    5    0    0 -0.21081864809E+02  0.43837163228E+01  0.10745637370E+03  0.13612261130E+03  0.80739278326E+02 0.  0.
          4    1    6    6  501    0 -0.17342060083E+02 -0.37302828289E+02  0.61208965876E+02  0.73748122348E+02  0.00000000000E+00 0. -1.
         -3    1    6    6    0  501 -0.37398047267E+01  0.41686544612E+02  0.46247407829E+02  0.62374488951E+02  0.00000000000E+00 0.  1.
          5    1    5    5  502    0 -0.91376383795E+02 -0.53752825409E+02  0.44419286440E+03  0.45669289521E+03  0.47000000000E+01 0. -1.
         13    1    4    4    0    0  0.46964210086E+02  0.30832976622E+02  0.39843885547E+02  0.68875573985E+02  0.00000000000E+00 0. -1.
        -14    1    4    4    0    0 -0.23438465977E+02  0.30772158968E+02  0.78080697247E+02  0.87137149009E+02  0.00000000000E+00 0.  1.
         -5    1    3    3    0  504  0.88932504496E+02 -0.12236026503E+02  0.77489870680E+01  0.90226645184E+02  0.47000000000E+01 0.  1.
<mgrwt>
<rscale>  2 0.21571838E+03</rscale>
<asrwt>0</asrwt>
<pdfrwt beam="1">  1       21 0.11664443E+00 0.21705608E+03</pdfrwt>
<pdfrwt beam="2">  1       21 0.12440929E-01 0.21705608E+03</pdfrwt>
<totfact> 0.30720086E+04</totfact>
</mgrwt>
</event>
<event>
12    1  0.2791583E-001  0.2371777E+03  0.7546771E-02  0.1121870E+00
         21   -1    0    0  502  503  0.00000000000E+00  0.00000000000E+00  0.65011493106E+02  0.65011493106E+02  0.00000000000E+00 0. -1.
         21   -1    0    0  503  504 -0.00000000000E+00 -0.00000000000E+00 -0.11513737853E+04  0.11513737853E+04  0.00000000000E+00 0.  1.
         -6    2    1    2    0  504 -0.11024374096E+03 -0.11750334646E+03 -0.23702034683E+03  0.33454911274E+03  0.17257967777E+03 0.  0.
        -24    2    3    3    0    0 -0.17779450624E+02  0.17663825575E+01 -0.62767131671E+02  0.10398201570E+03  0.80952565121E+02 0.  0.
          6    2    1    2  502    0  0.11024374096E+03  0.11750334646E+03 -0.84934194537E+03  0.88183616566E+03  0.17404759135E+03 0.  0.
         24    2    5    5    0    0  0.25921843500E+02  0.10756557028E+03 -0.66687837414E+03  0.68053046129E+03  0.78438823080E+02 0.  0.
          2    1    6    6  501    0  0.13793179313E+02  0.87465955391E+01 -0.29815987114E+03  0.29860687113E+03  0.00000000000E+00 0. -1.
         -1    1    6    6    0  501  0.12128664187E+02  0.98818974740E+02 -0.36871850301E+03  0.38192359016E+03  0.00000000000E+00 0.  1.
          5    1    5    5  502    0  0.84321897462E+02  0.99377761784E+01 -0.18246357122E+03  0.20130570437E+03  0.47000000000E+01 0. -1.
         11    1    4    4    0    0 -0.38802498439E+02  0.26407353507E+02 -0.21784971625E+02  0.51745214205E+02  0.00000000000E+00 0. -1.
        -12    1    4    4    0    0  0.21023047815E+02 -0.24640970949E+02 -0.40982160046E+02  0.52236801499E+02  0.00000000000E+00 0.  1.
         -5    1    3    3    0  504 -0.92464290337E+02 -0.11926972901E+03 -0.17425321515E+03  0.23056709704E+03  0.47000000000E+01 0.  1.
<mgrwt>
<rscale>  2 0.23690851E+03</rscale>
<asrwt>0</asrwt>
<pdfrwt beam="1">  1       21 0.10001768E-01 0.23717775E+03</pdfrwt>
<pdfrwt beam="2">  1       21 0.17713443E+00 0.23717775E+03</pdfrwt>
<totfact> 0.14968306E+04</totfact>
</mgrwt>
</event>
<event>
12    1  0.2791583E-001  0.1837163E+03  0.7546771E-02  0.1164908E+00
         21   -1    0    0  502  503  0.00000000000E+00  0.00000000000E+00  0.28266449580E+03  0.28266449580E+03  0.00000000000E+00 0. -1.
         21   -1    0    0  503  504 -0.00000000000E+00 -0.00000000000E+00 -0.11871833030E+03  0.11871833030E+03  0.00000000000E+00 0.  1.
         -6    2    1    2    0  504 -0.58416933950E+02  0.14293166005E+02  0.63299209866E+02  0.19431541402E+03  0.17359394399E+03 0.  0.
        -24    2    3    3    0    0 -0.76360702163E+02 -0.10000982541E+02  0.98312586678E+02  0.14783734363E+03  0.79117248342E+02 0.  0.
          6    2    1    2  502    0  0.58416933950E+02 -0.14293166005E+02  0.10064695564E+03  0.20706741209E+03  0.17067592303E+03 0.  0.
         24    2    5    5    0    0  0.10183823437E+03 -0.30593831712E+02  0.83074345942E+02  0.15724766054E+03  0.80737050189E+02 0.  0.
          2    1    6    6  501    0  0.56288223117E+02 -0.21320096828E+02  0.91974186728E+02  0.10991888652E+03  0.00000000000E+00 0. -1.
         -1    1    6    6    0  501  0.45550011252E+02 -0.92737348837E+01 -0.88998407860E+01  0.47328774015E+02  0.00000000000E+00 0.  1.
          5    1    5    5  502    0 -0.43421300420E+02  0.16300665707E+02  0.17572609693E+02  0.49819751546E+02  0.47000000000E+01 0. -1.
         11    1    4    4    0    0 -0.87050601030E+02  0.99187587047E+01  0.81551674298E+02  0.11969488082E+03  0.00000000000E+00 0. -1.
        -12    1    4    4    0    0  0.10689898867E+02 -0.19919741246E+02  0.16760912380E+02  0.28142462808E+02  0.00000000000E+00 0.  1.
         -5    1    3    3    0  504  0.17943768213E+02  0.24294148547E+02 -0.35013376812E+02  0.46478070389E+02  0.47000000000E+01 0.  1.
<mgrwt>
<rscale>  2 0.18302374E+03</rscale>
<asrwt>0</asrwt>
<pdfrwt beam="1">  1       21 0.43486845E-01 0.18371633E+03</pdfrwt>
<pdfrwt beam="2">  1       21 0.18264359E-01 0.18371633E+03</pdfrwt>
<totfact> 0.13931282E+05</totfact>
</mgrwt>
</event>
<event>
12    1  0.2791583E-001  0.1896637E+03  0.7546771E-02  0.1158875E+00
         21   -1    0    0  502  503  0.00000000000E+00  0.00000000000E+00  0.81468761333E+02  0.81468761333E+02  0.00000000000E+00 0. -1.
         21   -1    0    0  503  504 -0.00000000000E+00 -0.00000000000E+00 -0.51792480468E+03  0.51792480468E+03  0.00000000000E+00 0.  1.
         -6    2    1    2    0  504 -0.70594759617E+02 -0.30218462330E+02 -0.10205331311E+03  0.21494916448E+03  0.17289155285E+03 0.  0.
        -24    2    3    3    0    0 -0.91577461257E+02 -0.12725027643E+02 -0.13883949173E+02  0.12252502931E+03  0.79191293872E+02 0.  0.
          6    2    1    2  502    0  0.70594759617E+02  0.30218462330E+02 -0.33440273024E+03  0.38444440153E+03  0.17342299826E+03 0.  0.
         24    2    5    5    0    0  0.82188798550E+02  0.40654643738E+02 -0.12730788590E+03  0.17670971455E+03  0.81309450497E+02 0.  0.
          4    1    6    6  501    0  0.59643842424E+02  0.22188507433E+02 -0.21826110752E+02  0.67276273022E+02  0.00000000000E+00 0. -1.
         -3    1    6    6    0  501  0.22544956126E+02  0.18466136305E+02 -0.10548177515E+03  0.10943344153E+03  0.00000000000E+00 0.  1.
          5    1    5    5  502    0 -0.11594038934E+02 -0.10436181408E+02 -0.20709484434E+03  0.20773468698E+03  0.47000000000E+01 0. -1.
         11    1    4    4    0    0 -0.28127140831E+02  0.16187701252E+02  0.26543720489E+02  0.41925491298E+02  0.00000000000E+00 0. -1.
        -12    1    4    4    0    0 -0.63450320426E+02 -0.28912728894E+02 -0.40427669662E+02  0.80599538017E+02  0.00000000000E+00 0.  1.
         -5    1    3    3    0  504  0.20982701640E+02 -0.17493434687E+02 -0.88169363935E+02  0.92424135170E+02  0.47000000000E+01 0.  1.
<mgrwt>
<rscale>  2 0.18954211E+03</rscale>
<asrwt>0</asrwt>
<pdfrwt beam="1">  1       21 0.12533655E-01 0.18966368E+03</pdfrwt>
<pdfrwt beam="2">  1       21 0.79680745E-01 0.18966368E+03</pdfrwt>
<totfact> 0.75430584E+04</totfact>
</mgrwt>
</event>
<event>
12    1  0.2791583E-001  0.1953068E+03  0.7546771E-02  0.1153930E+00
         21   -1    0    0  502  503  0.00000000000E+00  0.00000000000E+00  0.66742036792E+03  0.66742036792E+03  0.00000000000E+00 0. -1.
         21   -1    0    0  503  504 -0.00000000000E+00 -0.00000000000E+00 -0.15379295724E+03  0.15379295724E+03  0.00000000000E+00 0. -1.
         -6    2    1    2    0  504  0.79418902303E+02 -0.42429935322E+02 -0.69250371288E+02  0.20648472626E+03  0.17243162934E+03 0.  0.
        -24    2    3    3    0    0  0.52018930268E+02 -0.49124288296E+02 -0.11191494003E+03  0.15512396054E+03  0.80120687250E+02 0.  0.
          6    2    1    2  502    0 -0.79418902303E+02  0.42429935322E+02  0.58287778197E+03  0.61472859891E+03  0.17331208885E+03 0.  0.
         24    2    5    5    0    0 -0.10886152164E+03  0.55242602009E+02  0.54773024079E+03  0.56689062328E+03  0.80336704678E+02 0.  0.
          4    1    6    6  501    0 -0.76324709578E+02  0.28895169416E+02  0.48268809522E+03  0.48953875166E+03  0.00000000000E+00 0. -1.
         -3    1    6    6    0  501 -0.32536812059E+02  0.26347432593E+02  0.65042145567E+02  0.77351871620E+02  0.00000000000E+00 0.  1.
          5    1    5    5  502    0  0.29442619333E+02 -0.12812666687E+02  0.35147541183E+02  0.47837975626E+02  0.47000000000E+01 0. -1.
         11    1    4    4    0    0 -0.47124869466E+01 -0.34546209637E+02 -0.82528376749E+02  0.89591188754E+02  0.00000000000E+00 0. -1.
        -12    1    4    4    0    0  0.56731417215E+02 -0.14578078659E+02 -0.29386563278E+02  0.65532771786E+02  0.00000000000E+00 0.  1.
         -5    1    3    3    0  504  0.27399972035E+02  0.66943529741E+01  0.42664568738E+02  0.51360765716E+02  0.47000000000E+01 0.  1.
<mgrwt>
<rscale>  2 0.19511127E+03</rscale>
<asrwt>0</asrwt>
<pdfrwt beam="1">  1       21 0.10268005E+00 0.19530679E+03</pdfrwt>
<pdfrwt beam="2">  1       21 0.23660455E-01 0.19530679E+03</pdfrwt>
<totfact> 0.12942570E+04</totfact>
</mgrwt>
</event>
<event>
12    1  0.2791583E-001  0.1925394E+03  0.7546771E-02  0.1156405E+00
         21   -1    0    0  502  503  0.00000000000E+00  0.00000000000E+00  0.24092252861E+03  0.24092252861E+03  0.00000000000E+00 0.  1.
         21   -1    0    0  503  504 -0.00000000000E+00 -0.00000000000E+00 -0.17628485956E+03  0.17628485956E+03  0.00000000000E+00 0.  1.
         -6    2    1    2    0  504  0.82664927887E+02  0.53535920241E+01 -0.43255580353E+02  0.19733841377E+03  0.17380809264E+03 0.  0.
        -24    2    3    3    0    0  0.77546352757E+02  0.28193966089E+02 -0.89180889878E+02  0.14557832728E+03  0.80196519271E+02 0.  0.
          6    2    1    2  502    0 -0.82664927887E+02 -0.53535920241E+01  0.10789324940E+03  0.21986897440E+03  0.17274044514E+03 0.  0.
         24    2    5    5    0    0 -0.12782456693E+02 -0.44991813165E+02  0.93230212732E+01  0.92617537365E+02  0.79394175169E+02 0.  0.
          4    1    6    6  501    0  0.10746456699E+02 -0.35879852762E+02  0.38724117085E+02  0.53873995674E+02  0.00000000000E+00 0. -1.
         -3    1    6    6    0  501 -0.23528913393E+02 -0.91119604030E+01 -0.29401095812E+02  0.38743541691E+02  0.00000000000E+00 0.  1.
          5    1    5    5  502    0 -0.69882471193E+02  0.39638221141E+02  0.98570228125E+02  0.12725143704E+03  0.47000000000E+01 0. -1.
         13    1    4    4    0    0 -0.75947289415E+01 -0.11447659691E+02  0.29118083101E+01  0.14043056923E+02  0.00000000000E+00 0. -1.
        -14    1    4    4    0    0  0.85141081699E+02  0.39641625780E+02 -0.92092698188E+02  0.13153527035E+03  0.00000000000E+00 0.  1.
         -5    1    3    3    0  504  0.51185751291E+01 -0.22840374065E+02  0.45925309525E+02  0.51760086493E+02  0.47000000000E+01 0.  1.
<mgrwt>
<rscale>  2 0.19229810E+03</rscale>
<asrwt>0</asrwt>
<pdfrwt beam="1">  1       21 0.37065005E-01 0.19253936E+03</pdfrwt>
<pdfrwt beam="2">  1       21 0.27120747E-01 0.19253936E+03</pdfrwt>
<totfact> 0.90973823E+04</totfact>
</mgrwt>
</event>
<event>
12    1  0.2791583E-001  0.3152640E+03  0.7546771E-02  0.1078380E+00
         21   -1    0    0  502  503  0.00000000000E+00  0.00000000000E+00  0.27040535965E+03  0.27040535965E+03  0.00000000000E+00 0.  1.
         21   -1    0    0  503  504 -0.00000000000E+00 -0.00000000000E+00 -0.42065821465E+03  0.42065821465E+03  0.00000000000E+00 0. -1.
         -6    2    1    2    0  504  0.11843572022E+03  0.23299124854E+03 -0.20329937852E+03  0.37136788374E+03  0.16814138706E+03 0.  0.
        -24    2    3    3    0    0  0.40076171492E+02  0.86629427431E+02 -0.15394422620E+03  0.19810501231E+03  0.80224771129E+02 0.  0.
          6    2    1    2  502    0 -0.11843572022E+03 -0.23299124854E+03  0.53046523524E+02  0.31969569057E+03  0.17629367314E+03 0.  0.
         24    2    5    5    0    0 -0.13964539875E+03 -0.15204363152E+03 -0.20134118641E+01  0.21941581397E+03  0.74304389614E+02 0.  0.
          4    1    6    6  501    0 -0.36420412245E+02 -0.83623706231E+02  0.20647098989E+02  0.93518304992E+02  0.00000000000E+00 0. -1.
         -3    1    6    6    0  501 -0.10322498650E+03 -0.68419925292E+02 -0.22660510853E+02  0.12589750898E+03  0.00000000000E+00 0.  1.
          5    1    5    5  502    0  0.21209678532E+02 -0.80947617022E+02  0.55059935388E+02  0.10027987659E+03  0.47000000000E+01 0. -1.
         13    1    4    4    0    0  0.64334727273E+02  0.71081313282E+02 -0.11866142130E+03  0.15255177199E+03  0.00000000000E+00 0. -1.
        -14    1    4    4    0    0 -0.24258555781E+02  0.15548114150E+02 -0.35282804898E+02  0.45553240320E+02  0.00000000000E+00 0.  1.
         -5    1    3    3    0  504  0.78359548723E+02  0.14636182111E+03 -0.49355152324E+02  0.17326287143E+03  0.47000000000E+01 0.  1.
<mgrwt>
<rscale>  2 0.31413668E+03</rscale>
<asrwt>0</asrwt>
<pdfrwt beam="1">  1       21 0.41600825E-01 0.31526402E+03</pdfrwt>
<pdfrwt beam="2">  1       21 0.64716648E-01 0.31526402E+03</pdfrwt>
<totfact> 0.11465242E+04</totfact>
</mgrwt>
</event>
<event>
12    1  0.2791583E-001  0.1904784E+03  0.7546771E-02  0.1158342E+00
         21   -1    0    0  502  503  0.00000000000E+00  0.00000000000E+00  0.16079185681E+03  0.16079185681E+03  0.00000000000E+00 0. -1.
         21   -1    0    0  503  504 -0.00000000000E+00 -0.00000000000E+00 -0.31788639111E+03  0.31788639111E+03  0.00000000000E+00 0. -1.
         -6    2    1    2    0  504 -0.21149025680E+02  0.75064976726E+02 -0.20880759188E+03  0.28263516691E+03  0.17378145795E+03 0.  0.
        -24    2    3    3    0    0 -0.18846280618E+02  0.93239348500E+02 -0.22535004199E+03  0.25750842658E+03  0.80493415463E+02 0.  0.
          6    2    1    2  502    0  0.21149025680E+02 -0.75064976726E+02  0.51713057588E+02  0.19604308101E+03  0.17226902585E+03 0.  0.
         24    2    5    5    0    0  0.37103803617E+02 -0.20732706439E+02  0.91244679770E+02  0.12682321619E+03  0.77149201024E+02 0.  0.
          2    1    6    6  501    0  0.44793289025E+02 -0.17989468842E+02  0.10227866783E+03  0.11309723969E+03  0.00000000000E+00 0. -1.
         -1    1    6    6    0  501 -0.76894854080E+01 -0.27432375966E+01 -0.11033988063E+02  0.13725976502E+02  0.00000000000E+00 0.  1.
          5    1    5    5  502    0 -0.15954777937E+02 -0.54332270287E+02 -0.39531622182E+02  0.69219864822E+02  0.47000000000E+01 0. -1.
         11    1    4    4    0    0 -0.19261436696E+02  0.48565772321E+01 -0.11212700689E+03  0.11387297730E+03  0.00000000000E+00 0. -1.
        -12    1    4    4    0    0  0.41515607785E+00  0.88382771268E+02 -0.11322303510E+03  0.14363544928E+03  0.00000000000E+00 0.  1.
         -5    1    3    3    0  504 -0.23027450624E+01 -0.18174371774E+02  0.16542450105E+02  0.25126740331E+02  0.47000000000E+01 0.  1.
<mgrwt>
<rscale>  2 0.19013277E+03</rscale>
<asrwt>0</asrwt>
<pdfrwt beam="1">  1       21 0.24737209E-01 0.19047842E+03</pdfrwt>
<pdfrwt beam="2">  1       21 0.48905598E-01 0.19047842E+03</pdfrwt>
<totfact> 0.61728809E+04</totfact>
</mgrwt>
</event>
<event>
12    1  0.2791583E-001  0.4968850E+03  0.7546771E-02  0.1014726E+00
         21   -1    0    0  502  503  0.00000000000E+00  0.00000000000E+00  0.13430918300E+04  0.13430918300E+04  0.00000000000E+00 0. -1.
         21   -1    0    0  503  504 -0.00000000000E+00 -0.00000000000E+00 -0.34485052356E+03  0.34485052356E+03  0.00000000000E+00 0.  1.
         -6    2    1    2    0  504  0.37730260173E+03 -0.26997263906E+03 -0.78373020186E+02  0.50302782704E+03  0.17791061062E+03 0.  0.
        -24    2    3    3    0    0  0.13058698581E+03 -0.11368333808E+03  0.12423838318E+02  0.19715023673E+03  0.93471930886E+02 0.  0.
          6    2    1    2  502    0 -0.37730260173E+03  0.26997263906E+03  0.10766143266E+04  0.11849145265E+04  0.17228333562E+03 0.  0.
         24    2    5    5    0    0 -0.13521165168E+03  0.65499426308E+02  0.28927186047E+03  0.33618160512E+03  0.82264796662E+02 0.  0.
          2    1    6    6  501    0 -0.78563959570E+02  0.13361293351E+02  0.78808397172E+02  0.11207846969E+03  0.00000000000E+00 0. -1.
         -1    1    6    6    0  501 -0.56647692110E+02  0.52138132957E+02  0.21046346329E+03  0.22410313543E+03  0.00000000000E+00 0.  1.
          5    1    5    5  502    0 -0.24209095005E+03  0.20447321275E+03  0.78734246618E+03  0.84873292141E+03  0.47000000000E+01 0. -1.
         11    1    4    4    0    0  0.11852349614E+03 -0.12916911978E+03  0.19265236871E+02  0.17636221249E+03  0.00000000000E+00 0. -1.
        -12    1    4    4    0    0  0.12063489666E+02  0.15485781696E+02 -0.68413985531E+01  0.20788024240E+02  0.00000000000E+00 0.  1.
         -5    1    3    3    0  504  0.24671561593E+03 -0.15628930098E+03 -0.90796858504E+02  0.30587759031E+03  0.47000000000E+01 0.  1.
<mgrwt>
<rscale>  2 0.49638747E+03</rscale>
<asrwt>0</asrwt>
<pdfrwt beam="1">  1       21 0.20662951E+00 0.49688496E+03</pdfrwt>
<pdfrwt beam="2">  1       21 0.53053928E-01 0.49688496E+03</pdfrwt>
<totfact> 0.32666410E+02</totfact>
</mgrwt>
</event>
<event>
12    1  0.2791583E-001  0.2834150E+03  0.7546771E-02  0.1094784E+00
         21   -1    0    0  502  503  0.00000000000E+00  0.00000000000E+00  0.72560389287E+03  0.72560389287E+03  0.00000000000E+00 0. -1.
         21   -1    0    0  503  504 -0.00000000000E+00 -0.00000000000E+00 -0.24468437728E+03  0.24468437728E+03  0.00000000000E+00 0.  1.
         -6    2    1    2    0  504 -0.17911038455E+03  0.11809079609E+03 -0.12343728294E+03  0.30277708102E+03  0.17438816472E+03 0.  0.
        -24    2    3    3    0    0 -0.51666701685E+02  0.69211336158E+02  0.23945664157E+01  0.11707075851E+03  0.78994755739E+02 0.  0.
          6    2    1    2  502    0  0.17911038455E+03 -0.11809079609E+03  0.60435679853E+03  0.66751118914E+03  0.18519741284E+03 0.  0.
         24    2    5    5    0    0  0.11111745590E+03 -0.14189306295E+03  0.52202358750E+03  0.55801034945E+03  0.79913665071E+02 0.  0.
          4    1    6    6  501    0  0.11859538510E+03 -0.13936500003E+03  0.45343597619E+03  0.48896999203E+03  0.00000000000E+00 0. -1.
         -3    1    6    6    0  501 -0.74779292009E+01 -0.25280629190E+01  0.68587611318E+02  0.69040357426E+02  0.00000000000E+00 0.  1.
          5    1    5    5  502    0  0.67992928651E+02  0.23802266865E+02  0.82333211031E+02  0.10950083969E+03  0.47000000000E+01 0. -1.
         13    1    4    4    0    0 -0.62526771528E+02  0.20958345064E+02 -0.83049293940E+01  0.66466692695E+02  0.00000000000E+00 0. -1.
        -14    1    4    4    0    0  0.10860069843E+02  0.48252991094E+02  0.10699495810E+02  0.50604065816E+02  0.00000000000E+00 0.  1.
         -5    1    3    3    0  504 -0.12744368286E+03  0.48879459930E+02 -0.12583184936E+03  0.18570632250E+03  0.47000000000E+01 0.  1.
<mgrwt>
<rscale>  2 0.28166325E+03</rscale>
<asrwt>0</asrwt>
<pdfrwt beam="1">  1       21 0.11163137E+00 0.28341497E+03</pdfrwt>
<pdfrwt beam="2">  1       21 0.37643751E-01 0.28341497E+03</pdfrwt>
<totfact> 0.40271911E+03</totfact>
</mgrwt>
</event>
<event>
12    1  0.2791583E-001  0.3179707E+03  0.7546771E-02  0.1076599E+00
         21   -1    0    0  502  503  0.00000000000E+00  0.00000000000E+00  0.14112306374E+03  0.14112306374E+03  0.00000000000E+00 0. -1.
         21   -1    0    0  503  504 -0.00000000000E+00 -0.00000000000E+00 -0.71907486127E+03  0.71907486127E+03  0.00000000000E+00 0.  1.
         -6    2    1    2    0  504  0.23338791057E+03  0.12940973892E+03 -0.31623916713E+03  0.44845573627E+03  0.17288302183E+03 0.  0.
        -24    2    3    3    0    0  0.23106050628E+03  0.83278813909E+02 -0.30632379562E+03  0.40098065181E+03  0.81405755004E+02 0.  0.
          6    2    1    2  502    0 -0.23338791057E+03 -0.12940973892E+03 -0.26171263039E+03  0.41174218874E+03  0.17268853972E+03 0.  0.
         24    2    5    5    0    0 -0.15364230861E+03 -0.73636930476E+02 -0.24913337804E+03  0.31350627482E+03  0.84796154243E+02 0.  0.
          4    1    6    6  501    0  0.41224204574E+01  0.93343718999E+01 -0.53962837864E+01  0.11543168018E+02  0.00000000000E+00 0. -1.
         -3    1    6    6    0  501 -0.15776472907E+03 -0.82971302375E+02 -0.24373709425E+03  0.30196310680E+03  0.00000000000E+00 0.  1.
          5    1    5    5  502    0 -0.79745601961E+02 -0.55772808440E+02 -0.12579252357E+02  0.98235913918E+02  0.47000000000E+01 0. -1.
         13    1    4    4    0    0  0.18022333046E+02  0.33164972704E+02 -0.28425462536E+02  0.47251738838E+02  0.00000000000E+00 0. -1.
        -14    1    4    4    0    0  0.21303817324E+03  0.50113841206E+02 -0.27789833309E+03  0.35372891297E+03  0.00000000000E+00 0.  1.
         -5    1    3    3    0  504  0.23274042874E+01  0.46130925006E+02 -0.99153715109E+01  0.47475084464E+02  0.47000000000E+01 0.  1.
<mgrwt>
<rscale>  2 0.31794423E+03</rscale>
<asrwt>0</asrwt>
<pdfrwt beam="1">  1       21 0.21711240E-01 0.31797065E+03</pdfrwt>
<pdfrwt beam="2">  1       21 0.11062690E+00 0.31797065E+03</pdfrwt>
<totfact> 0.11902600E+04</totfact>
</mgrwt>
</event>
<event>
12    1  0.2791583E-001  0.1975899E+03  0.7546771E-02  0.1151931E+00
         21   -1    0    0  502  503  0.00000000000E+00  0.00000000000E+00  0.40154954677E+03  0.40154954677E+03  0.00000000000E+00 0.  1.
         21   -1    0    0  503  504 -0.00000000000E+00 -0.00000000000E+00 -0.13004080216E+03  0.13004080216E+03  0.00000000000E+00 0.  1.
         -6    2    1    2    0  504 -0.53492620912E+02 -0.76327354144E+02  0.14095612359E+01  0.19693333364E+03  0.17347456745E+03 0.  0.
        -24    2    3    3    0    0 -0.28841944579E+02 -0.88246042438E+02  0.56019301606E+02  0.13566323720E+03  0.81529933167E+02 0.  0.
          6    2    1    2  502    0  0.53492620912E+02  0.76327354144E+02  0.27009918337E+03  0.33465701528E+03  0.17422520925E+03 0.  0.
         24    2    5    5    0    0  0.48146859028E+02  0.63435030561E+02  0.87467003326E+02  0.15143203782E+03  0.94546614275E+02 0.  0.
          4    1    6    6  501    0  0.67336385321E+02  0.30594967404E+02  0.24582389588E+02  0.77939301359E+02  0.00000000000E+00 0. -1.
         -3    1    6    6    0  501 -0.19189526293E+02  0.32840063157E+02  0.62884613738E+02  0.73492736461E+02  0.00000000000E+00 0.  1.
          5    1    5    5  502    0  0.53457618836E+01  0.12892323582E+02  0.18263218005E+03  0.18322497746E+03  0.47000000000E+01 0. -1.
         11    1    4    4    0    0 -0.53266799443E+02 -0.35295183769E+02  0.39234385662E+02  0.74982924313E+02  0.00000000000E+00 0. -1.
        -12    1    4    4    0    0  0.24424854864E+02 -0.52950858669E+02  0.16784915944E+02  0.60680312888E+02  0.00000000000E+00 0.  1.
         -5    1    3    3    0  504 -0.24650676333E+02  0.11918688294E+02 -0.54609740370E+02  0.61270096439E+02  0.47000000000E+01 0.  1.
<mgrwt>
<rscale>  2 0.19742425E+03</rscale>
<asrwt>0</asrwt>
<pdfrwt beam="1">  1       21 0.61776853E-01 0.19758985E+03</pdfrwt>
<pdfrwt beam="2">  1       21 0.20006277E-01 0.19758985E+03</pdfrwt>
<totfact> 0.56006573E+04</totfact>
</mgrwt>
</event>
<event>
12    1  0.2791583E-001  0.1929144E+03  0.7546771E-02  0.1159153E+00
         21   -1    0    0  502  503  0.00000000000E+00  0.00000000000E+00  0.21806569103E+03  0.21806569103E+03  0.00000000000E+00 0. -1.
         21   -1    0    0  503  504 -0.00000000000E+00 -0.00000000000E+00 -0.17357869396E+03  0.17357869396E+03  0.00000000000E+00 0.  1.
         -6    2    1    2    0  504  0.19413054516E+02  0.40554834573E+02 -0.35137888781E+02  0.19608832692E+03  0.18760170424E+03 0.  0.
        -24    2    3    3    0    0  0.11139914404E+02 -0.50395018334E+02 -0.42242860002E+02  0.10436651268E+03  0.80275489300E+02 0.  0.
          6    2    1    2  502    0 -0.19413054516E+02 -0.40554834573E+02  0.79624885852E+02  0.19555605806E+03  0.17285973535E+03 0.  0.
         24    2    5    5    0    0 -0.41800160056E+02  0.69937994686E+01  0.10318199496E+03  0.13777126349E+03  0.80859324436E+02 0.  0.
          2    1    6    6  501    0 -0.57042560831E+02 -0.14104067053E+02  0.44931989057E+02  0.73970684019E+02  0.00000000000E+00 0. -1.
         -1    1    6    6    0  501  0.15242400776E+02  0.21097866522E+02  0.58250005905E+02  0.63800579473E+02  0.00000000000E+00 0.  1.
          5    1    5    5  502    0  0.22387105539E+02 -0.47548634042E+02 -0.23557109111E+02  0.57784794568E+02  0.47000000000E+01 0. -1.
         11    1    4    4    0    0  0.20140757513E+02 -0.60736777377E+02 -0.44270039164E+01  0.64142065783E+02  0.00000000000E+00 0. -1.
        -12    1    4    4    0    0 -0.90008431090E+01  0.10341759042E+02 -0.37815856086E+02  0.40224446898E+02  0.00000000000E+00 0.  1.
         -5    1    3    3    0  504  0.82731401122E+01  0.90949852907E+02  0.71049712210E+01  0.91721814238E+02  0.47000000000E+01 0.  1.
<mgrwt>
<rscale>  2 0.18923470E+03</rscale>
<asrwt>0</asrwt>
<pdfrwt beam="1">  1       21 0.33548568E-01 0.19291439E+03</pdfrwt>
<pdfrwt beam="2">  1       21 0.26704415E-01 0.19291439E+03</pdfrwt>
<totfact> 0.11423354E+05</totfact>
</mgrwt>
</event>
<event>
12    1  0.2791583E-001  0.1798804E+03  0.7546771E-02  0.1168139E+00
         21   -1    0    0  502  503  0.00000000000E+00  0.00000000000E+00  0.11918123690E+03  0.11918123690E+03  0.00000000000E+00 0.  1.
         21   -1    0    0  503  504 -0.00000000000E+00 -0.00000000000E+00 -0.90077653242E+03  0.90077653242E+03  0.00000000000E+00 0.  1.
         -6    2    1    2    0  504 -0.38411996133E+02 -0.26366186929E+02  0.36211805672E+02  0.18260156402E+03  0.17280445322E+03 0.  0.
        -24    2    3    3    0    0 -0.34225493759E+02  0.50946705289E+02  0.34423121607E+02  0.10501226388E+03  0.77946603915E+02 0.  0.
          6    2    1    2  502    0  0.38411996133E+02  0.26366186929E+02 -0.81780710118E+03  0.83735620530E+03  0.17374205749E+03 0.  0.
         24    2    5    5    0    0  0.62504363065E+02  0.22555276225E+02 -0.25730051227E+03  0.27629944221E+03  0.75645834418E+02 0.  0.
          2    1    6    6  501    0  0.10937642355E+02  0.39105232037E+01  0.15374965434E+01  0.11717000795E+02  0.00000000000E+00 0. -1.
         -1    1    6    6    0  501  0.51566720710E+02  0.18644753021E+02 -0.25883800881E+03  0.26458244142E+03  0.00000000000E+00 0.  1.
          5    1    5    5  502    0 -0.24092366932E+02  0.38109107047E+01 -0.56050658891E+03  0.56105676308E+03  0.47000000000E+01 0. -1.
         13    1    4    4    0    0 -0.11241073242E+02  0.40170530011E+02 -0.19020962598E+02  0.45845722016E+02  0.00000000000E+00 0. -1.
        -14    1    4    4    0    0 -0.22984420517E+02  0.10776175278E+02  0.53444084204E+02  0.59166541868E+02  0.00000000000E+00 0.  1.
         -5    1    3    3    0  504 -0.41865023744E+01 -0.77312892218E+02  0.17886840652E+01  0.77589300138E+02  0.47000000000E+01 0.  1.
<mgrwt>
<rscale>  2 0.17965361E+03</rscale>
<asrwt>0</asrwt>
<pdfrwt beam="1">  1       21 0.18335575E-01 0.17988040E+03</pdfrwt>
<pdfrwt beam="2">  1       21 0.13858100E+00 0.17988040E+03</pdfrwt>
<totfact> 0.10063480E+04</totfact>
</mgrwt>
</event>
<event>
12    1  0.2791583E-001  0.2530792E+03  0.7546771E-02  0.1111776E+00
         21   -1    0    0  502  503  0.00000000000E+00  0.00000000000E+00  0.57756042318E+03  0.57756042318E+03  0.00000000000E+00 0.  1.
         21   -1    0    0  503  504 -0.00000000000E+00 -0.00000000000E+00 -0.11059794975E+03  0.11059794975E+03  0.00000000000E+00 0.  1.
         -6    2    1    2    0  504  0.10054914133E+03  0.15023928840E+03  0.20496182460E+03  0.32566614778E+03  0.17710764146E+03 0.  0.
        -24    2    3    3    0    0  0.90558682798E+02  0.14186508070E+03  0.85191936473E+02  0.20509727651E+03  0.80502488416E+02 0.  0.
          6    2    1    2  502    0 -0.10054914133E+03 -0.15023928840E+03  0.26200064883E+03  0.36249222515E+03  0.17341943290E+03 0.  0.
         24    2    5    5    0    0 -0.69380823984E+02 -0.15930075330E+03  0.26778557687E+03  0.32918862857E+03  0.80409012324E+02 0.  0.
          2    1    6    6  501    0  0.86948301004E+01 -0.43623685427E+02  0.10935345555E+03  0.11805424279E+03  0.00000000000E+00 0. -1.
         -1    1    6    6    0  501 -0.78075654084E+02 -0.11567706787E+03  0.15843212132E+03  0.21113438578E+03  0.00000000000E+00 0.  1.
          5    1    5    5  502    0 -0.31168317350E+02  0.90614649016E+01 -0.57849280404E+01  0.33303596578E+02  0.47000000000E+01 0. -1.
         11    1    4    4    0    0  0.12776295942E+02 -0.97983274765E+01  0.65202884125E+01  0.17371100147E+02  0.00000000000E+00 0. -1.
        -12    1    4    4    0    0  0.77782386856E+02  0.15166340817E+03  0.78671648061E+02  0.18772617637E+03  0.00000000000E+00 0.  1.
         -5    1    3    3    0  504  0.99904585365E+01  0.83742077028E+01  0.11976988813E+03  0.12056887127E+03  0.47000000000E+01 0.  1.
<mgrwt>
<rscale>  2 0.25243496E+03</rscale>
<asrwt>0</asrwt>
<pdfrwt beam="1">  1       21 0.88855448E-01 0.25307922E+03</pdfrwt>
<pdfrwt beam="2">  1       21 0.17015070E-01 0.25307922E+03</pdfrwt>
<totfact> 0.32698096E+04</totfact>
</mgrwt>
</event>
<event>
12    1  0.2791583E-001  0.1843338E+03  0.7546771E-02  0.1163799E+00
         21   -1    0    0  502  503  0.00000000000E+00  0.00000000000E+00  0.22761659958E+03  0.22761659958E+03  0.00000000000E+00 0.  1.
         21   -1    0    0  503  504 -0.00000000000E+00 -0.00000000000E+00 -0.26342550561E+03  0.26342550561E+03  0.00000000000E+00 0.  1.
         -6    2    1    2    0  504 -0.30135659886E+02  0.56108148825E+02 -0.17981230661E+03  0.25712771937E+03  0.17241205323E+03 0.  0.
        -24    2    3    3    0    0 -0.40973951904E+02  0.19884104349E+02 -0.20428663799E+02  0.93253116189E+02  0.78769099487E+02 0.  0.
          6    2    1    2  502    0  0.30135659886E+02 -0.56108148825E+02  0.14400340058E+03  0.23391438583E+03  0.17298172782E+03 0.  0.
         24    2    5    5    0    0  0.73281061812E+02  0.62481171541E+00  0.63055272028E+02  0.12595678288E+03  0.80738091463E+02 0.  0.
          2    1    6    6  501    0  0.14476042590E+02 -0.68522365721E+01 -0.18923507475E+02  0.24791290614E+02  0.00000000000E+00 0. -1.
         -1    1    6    6    0  501  0.58805019222E+02  0.74770482875E+01  0.81978779503E+02  0.10116549227E+03  0.00000000000E+00 0.  1.
          5    1    5    5  502    0 -0.43145401926E+02 -0.56732960541E+02  0.80948128548E+02  0.10795760295E+03  0.47000000000E+01 0. -1.
         13    1    4    4    0    0 -0.53651391965E+01 -0.21210519559E+02 -0.30916563015E+02  0.37874856135E+02  0.00000000000E+00 0. -1.
        -14    1    4    4    0    0 -0.35608812708E+02  0.41094623908E+02  0.10487899216E+02  0.55378260054E+02  0.00000000000E+00 0.  1.
         -5    1    3    3    0  504  0.10838292018E+02  0.36224044476E+02 -0.15938364281E+03  0.16387460318E+03  0.47000000000E+01 0.  1.
<mgrwt>
<rscale>  2 0.18420006E+03</rscale>
<asrwt>0</asrwt>
<pdfrwt beam="1">  1       21 0.35017938E-01 0.18433383E+03</pdfrwt>
<pdfrwt beam="2">  1       21 0.40527001E-01 0.18433383E+03</pdfrwt>
<totfact> 0.46299658E+04</totfact>
</mgrwt>
</event>
<event>
12    1  0.2791583E-001  0.2663323E+03  0.7546771E-02  0.1103495E+00
         21   -1    0    0  502  503  0.00000000000E+00  0.00000000000E+00  0.11502550175E+04  0.11502550175E+04  0.00000000000E+00 0.  1.
         21   -1    0    0  503  504 -0.00000000000E+00 -0.00000000000E+00 -0.11528174109E+03  0.11528174109E+03  0.00000000000E+00 0. -1.
         -6    2    1    2    0  504 -0.41025555599E+02  0.19819763800E+03  0.85685342311E+02  0.27977646187E+03  0.17311120937E+03 0.  0.
        -24    2    3    3    0    0  0.34297949533E+02  0.13243818098E+03  0.85443056352E+02  0.17967608567E+03  0.79162862254E+02 0.  0.
          6    2    1    2  502    0  0.41025555599E+02 -0.19819763800E+03  0.94928793409E+03  0.98576029671E+03  0.17207667139E+03 0.  0.
         24    2    5    5    0    0  0.74135035486E+02 -0.19246632569E+03  0.89338366865E+03  0.92036562955E+03  0.79995141249E+02 0.  0.
          4    1    6    6  501    0 -0.12711674126E+02 -0.63262659888E+02  0.30358944868E+03  0.31037123602E+03  0.00000000000E+00 0. -1.
         -3    1    6    6    0  501  0.86846709612E+02 -0.12920366580E+03  0.58979421997E+03  0.60999439353E+03  0.00000000000E+00 0.  1.
          5    1    5    5  502    0 -0.33109479887E+02 -0.57313123090E+01  0.55904265437E+02  0.65394667161E+02  0.47000000000E+01 0. -1.
         11    1    4    4    0    0 -0.19829691810E+02  0.68068162114E+02  0.56750071919E+02  0.90813336211E+02  0.00000000000E+00 0. -1.
        -12    1    4    4    0    0  0.54127641344E+02  0.64370018867E+02  0.28692984433E+02  0.88862749463E+02  0.00000000000E+00 0.  1.
         -5    1    3    3    0  504 -0.75323505133E+02  0.65759457020E+02  0.24228595908E+00  0.10010037620E+03  0.47000000000E+01 0.  1.
<mgrwt>
<rscale>  2 0.26616432E+03</rscale>
<asrwt>0</asrwt>
<pdfrwt beam="1">  1       21 0.17696230E+00 0.26633229E+03</pdfrwt>
<pdfrwt beam="2">  1       21 0.17735653E-01 0.26633229E+03</pdfrwt>
<totfact> 0.52072218E+03</totfact>
</mgrwt>
</event>
<event>
12    1  0.2791583E-001  0.1927939E+03  0.7546771E-02  0.1156699E+00
         21   -1    0    0  502  503  0.00000000000E+00  0.00000000000E+00  0.73021133810E+02  0.73021133810E+02  0.00000000000E+00 0.  1.
         21   -1    0    0  503  504 -0.00000000000E+00 -0.00000000000E+00 -0.93749815277E+03  0.93749815277E+03  0.00000000000E+00 0.  1.
         -6    2    1    2    0  504  0.54815047258E+02 -0.61512954857E+02 -0.77921935966E+03  0.80271558485E+03  0.17430136738E+03 0.  0.
        -24    2    3    3    0    0  0.63227743965E+02 -0.57688601381E+02 -0.28263265052E+03  0.30602065953E+03  0.80260242852E+02 0.  0.
          6    2    1    2  502    0 -0.54815047258E+02  0.61512954857E+02 -0.85257659302E+02  0.20780370173E+03  0.17066041416E+03 0.  0.
         24    2    5    5    0    0 -0.49802155786E+02 -0.16242280274E+01  0.64660559304E+01  0.96238640537E+02  0.82080285181E+02 0.  0.
          2    1    6    6  501    0 -0.53245578002E+02 -0.29844246724E+02  0.20688948962E+02  0.64450005807E+02  0.00000000000E+00 0. -1.
         -1    1    6    6    0  501  0.34434222158E+01  0.28220018697E+02 -0.14222893031E+02  0.31788634730E+02  0.00000000000E+00 0.  1.
          5    1    5    5  502    0 -0.50128914712E+01  0.63137182884E+02 -0.91723715232E+02  0.11156506119E+03  0.47000000000E+01 0. -1.
         11    1    4    4    0    0  0.60456063438E+02 -0.36619585739E+02 -0.10173281761E+03  0.12387693831E+03  0.00000000000E+00 0. -1.
        -12    1    4    4    0    0  0.27716805271E+01 -0.21069015642E+02 -0.18089983291E+03  0.18214372122E+03  0.00000000000E+00 0.  1.
         -5    1    3    3    0  504 -0.84126967075E+01 -0.38243534762E+01 -0.49658670913E+03  0.49669492531E+03  0.47000000000E+01 0.  1.
<mgrwt>
<rscale>  2 0.19196730E+03</rscale>
<asrwt>0</asrwt>
<pdfrwt beam="1">  1       21 0.11234021E-01 0.19279393E+03</pdfrwt>
<pdfrwt beam="2">  1       21 0.14423048E+00 0.19279393E+03</pdfrwt>
<totfact> 0.21864754E+04</totfact>
</mgrwt>
</event>
<event>
12    1  0.2791583E-001  0.2394164E+03  0.7546771E-02  0.1120784E+00
         21   -1    0    0  502  503  0.00000000000E+00  0.00000000000E+00  0.44571907880E+03  0.44571907880E+03  0.00000000000E+00 0.  1.
         21   -1    0    0  503  504 -0.00000000000E+00 -0.00000000000E+00 -0.13394669156E+03  0.13394669156E+03  0.00000000000E+00 0.  1.
         -6    2    1    2    0  504 -0.13846391433E+03  0.92729046743E+02  0.89535241289E+02  0.25561061962E+03  0.17189909176E+03 0.  0.
        -24    2    3    3    0    0 -0.14705774238E+03  0.30568647560E+02  0.42324592891E+02  0.17694230052E+03  0.83407342255E+02 0.  0.
          6    2    1    2  502    0  0.13846391433E+03 -0.92729046743E+02  0.22223714595E+03  0.32405515074E+03  0.16688756694E+03 0.  0.
         24    2    5    5    0    0  0.78650000380E+02 -0.10718858353E+03  0.20780389319E+03  0.26067383416E+03  0.84220987844E+02 0.  0.
          2    1    6    6  501    0  0.79890758214E+02 -0.11823772023E+03  0.17367350397E+03  0.22477806324E+03  0.00000000000E+00 0. -1.
         -1    1    6    6    0  501 -0.12407578335E+01  0.11049136700E+02  0.34130389217E+02  0.35895770919E+02  0.00000000000E+00 0.  1.
          5    1    5    5  502    0  0.59813913947E+02  0.14459536789E+02  0.14433252763E+02  0.63381316577E+02  0.47000000000E+01 0. -1.
         11    1    4    4    0    0 -0.12621371286E+03 -0.56694772882E+01  0.47165366479E+02  0.13485776241E+03  0.00000000000E+00 0. -1.
        -12    1    4    4    0    0 -0.20844029523E+02  0.36238124848E+02 -0.48407735876E+01  0.42084538113E+02  0.00000000000E+00 0.  1.
         -5    1    3    3    0  504  0.85938280565E+01  0.62160399183E+02  0.47210648397E+02  0.78668319096E+02  0.47000000000E+01 0.  1.
<mgrwt>
<rscale>  2 0.23851828E+03</rscale>
<asrwt>0</asrwt>
<pdfrwt beam="1">  1       21 0.68572165E-01 0.23941644E+03</pdfrwt>
<pdfrwt beam="2">  1       21 0.20607184E-01 0.23941644E+03</pdfrwt>
<totfact> 0.41378484E+04</totfact>
</mgrwt>
</event>
<event>
12    1  0.2791583E-001  0.1859913E+03  0.7546771E-02  0.1162501E+00
         21   -1    0    0  502  503  0.00000000000E+00  0.00000000000E+00  0.19566903355E+03  0.19566903355E+03  0.00000000000E+00 0. -1.
         21   -1    0    0  503  504 -0.00000000000E+00 -0.00000000000E+00 -0.24636123622E+03  0.24636123622E+03  0.00000000000E+00 0. -1.
         -6    2    1    2    0  504  0.52342715163E+02  0.48661596088E+02 -0.14399198322E+03  0.23394951020E+03  0.16997344301E+03 0.  0.
        -24    2    3    3    0    0  0.22962315012E+01 -0.14141881916E+02 -0.11903138994E+03  0.14972333498E+03  0.89684668386E+02 0.  0.
          6    2    1    2  502    0 -0.52342715163E+02 -0.48661596088E+02  0.93299780539E+02  0.20808075957E+03  0.17171209244E+03 0.  0.
         24    2    5    5    0    0 -0.24138532826E+02 -0.94644559775E+02  0.85923756387E+02  0.15343275335E+03  0.81353896207E+02 0.  0.
          2    1    6    6  501    0 -0.50739459869E+02 -0.75614129391E+02  0.77706098248E+02  0.11970892639E+03  0.00000000000E+00 0. -1.
         -1    1    6    6    0  501  0.26600927043E+02 -0.19030430384E+02  0.82176581392E+01  0.33723826969E+02  0.00000000000E+00 0.  1.
          5    1    5    5  502    0 -0.28204182337E+02  0.45982963687E+02  0.73760241525E+01  0.54648006213E+02  0.47000000000E+01 0. -1.
         13    1    4    4    0    0 -0.14193802334E+02  0.81100494354E+01 -0.12086611049E+03  0.12196660851E+03  0.00000000000E+00 0. -1.
        -14    1    4    4    0    0  0.16490033836E+02 -0.22251931352E+02  0.18347205518E+01  0.27756726469E+02  0.00000000000E+00 0.  1.
         -5    1    3    3    0  504  0.50046483662E+02  0.62803478004E+02 -0.24960593279E+02  0.84226175226E+02  0.47000000000E+01 0.  1.
<mgrwt>
<rscale>  2 0.18558898E+03</rscale>
<asrwt>0</asrwt>
<pdfrwt beam="1">  1       21 0.30102929E-01 0.18599127E+03</pdfrwt>
<pdfrwt beam="2">  1       21 0.37901728E-01 0.18599127E+03</pdfrwt>
<totfact> 0.71261677E+04</totfact>
</mgrwt>
</event>
<event>
12    1  0.2791583E-001  0.3223510E+03  0.7546771E-02  0.1074631E+00
         21   -1    0    0  502  503  0.00000000000E+00  0.00000000000E+00  0.49978192754E+02  0.49978192754E+02  0.00000000000E+00 0.  1.
         21   -1    0    0  503  504 -0.00000000000E+00 -0.00000000000E+00 -0.20802950199E+04  0.20802950199E+04  0.00000000000E+00 0. -1.
         -6    2    1    2    0  504 -0.25886983373E+03 -0.83661614393E+02 -0.10655910528E+04  0.11132809500E+04  0.17290843037E+03 0.  0.
        -24    2    3    3    0    0 -0.90579496800E+02 -0.38085528409E+02 -0.26894730003E+03  0.29776750685E+03  0.81717104899E+02 0.  0.
          6    2    1    2  502    0  0.25886983373E+03  0.83661614393E+02 -0.96472577431E+03  0.10169922626E+04  0.17194355490E+03 0.  0.
         24    2    5    5    0    0  0.19312839800E+03  0.10616588335E+03 -0.57467202109E+03  0.62076959934E+03  0.80852895691E+02 0.  0.
          2    1    6    6  501    0  0.19739507707E+03  0.92472417717E+02 -0.51188455038E+03  0.55636477010E+03  0.00000000000E+00 0. -1.
         -1    1    6    6    0  501 -0.42666790753E+01  0.13693465634E+02 -0.62787470706E+02  0.64404829237E+02  0.00000000000E+00 0.  1.
          5    1    5    5  502    0  0.65741435729E+02 -0.22504268957E+02 -0.39005375323E+03  0.39622266328E+03  0.47000000000E+01 0. -1.
         11    1    4    4    0    0  0.77832101991E+01 -0.21483179536E+02 -0.90406514213E+02  0.93249360191E+02  0.00000000000E+00 0. -1.
        -12    1    4    4    0    0 -0.98362706999E+02 -0.16602348873E+02 -0.17854078581E+03  0.20451814666E+03  0.00000000000E+00 0.  1.
         -5    1    3    3    0  504 -0.16829033693E+03 -0.45576085984E+02 -0.79664375280E+03  0.81551344317E+03  0.47000000000E+01 0.  1.
<mgrwt>
<rscale>  2 0.32222181E+03</rscale>
<asrwt>0</asrwt>
<pdfrwt beam="1">  1       21 0.76889530E-02 0.32235102E+03</pdfrwt>
<pdfrwt beam="2">  1       21 0.32004538E+00 0.32235102E+03</pdfrwt>
<totfact> 0.29695445E+03</totfact>
</mgrwt>
</event>
<event>
12    1  0.2791583E-001  0.1832141E+03  0.7546771E-02  0.1169394E+00
         21   -1    0    0  502  503  0.00000000000E+00  0.00000000000E+00  0.32540431405E+03  0.32540431405E+03  0.00000000000E+00 0. -1.
         21   -1    0    0  503  504 -0.00000000000E+00 -0.00000000000E+00 -0.11028035815E+03  0.11028035815E+03  0.00000000000E+00 0. -1.
         -6    2    1    2    0  504 -0.19764942234E+01 -0.54483320481E+02  0.16399791193E+02  0.16539093766E+03  0.15528319410E+03 0.  0.
        -24    2    3    3    0    0  0.19555034367E+02 -0.53681640069E+02 -0.39739340024E+02  0.10507558747E+03  0.78724494835E+02 0.  0.
          6    2    1    2  502    0  0.19764942234E+01  0.54483320481E+02  0.19872416471E+03  0.27029373454E+03  0.17491446639E+03 0.  0.
         24    2    5    5    0    0 -0.54735107776E+01  0.71954009185E+02  0.54865603737E+02  0.12511073587E+03  0.86227159290E+02 0.  0.
          4    1    6    6  501    0 -0.33965933165E+02  0.54637536566E+01  0.37155125126E+02  0.50636355941E+02  0.00000000000E+00 0. -1.
         -3    1    6    6    0  501  0.28492422387E+02  0.66490255528E+02  0.17710478610E+02  0.74474379932E+02  0.00000000000E+00 0.  1.
          5    1    5    5  502    0  0.74500050010E+01 -0.17470688703E+02  0.14385856097E+03  0.14518299867E+03  0.47000000000E+01 0. -1.
         11    1    4    4    0    0  0.69211333429E+01 -0.67824988801E+02 -0.87396279107E+01  0.68735087755E+02  0.00000000000E+00 0. -1.
        -12    1    4    4    0    0  0.12633901024E+02  0.14143348732E+02 -0.30999712113E+02  0.36340499715E+02  0.00000000000E+00 0.  1.
         -5    1    3    3    0  504 -0.21531528591E+02 -0.80168041242E+00  0.56139131217E+02  0.60315350191E+02  0.47000000000E+01 0.  1.
<mgrwt>
<rscale>  2 0.17836544E+03</rscale>
<asrwt>0</asrwt>
<pdfrwt beam="1">  1       21 0.50062202E-01 0.18321411E+03</pdfrwt>
<pdfrwt beam="2">  1       21 0.16966209E-01 0.18321411E+03</pdfrwt>
<totfact> 0.11939928E+05</totfact>
</mgrwt>
</event>
<event>
12    1  0.2791583E-001  0.1937834E+03  0.7546771E-02  0.1155919E+00
         21   -1    0    0  502  503  0.00000000000E+00  0.00000000000E+00  0.12250404625E+03  0.12250404625E+03  0.00000000000E+00 0. -1.
         21   -1    0    0  503  504 -0.00000000000E+00 -0.00000000000E+00 -0.52568315300E+03  0.52568315300E+03  0.00000000000E+00 0.  1.
         -6    2    1    2    0  504  0.26713622578E+02 -0.79089798373E+02 -0.41473490435E+03  0.45777399501E+03  0.17488046141E+03 0.  0.
        -24    2    3    3    0    0  0.50408534380E+02 -0.21836014690E+02 -0.11139831567E+03  0.14813772352E+03  0.80730220606E+02 0.  0.
          6    2    1    2  502    0 -0.26713622578E+02  0.79089798373E+02  0.11555797609E+02  0.19041320424E+03  0.17074787862E+03 0.  0.
         24    2    5    5    0    0 -0.75019616149E+01 -0.42278998066E+01  0.51317157996E+02  0.95999314760E+02  0.80673807180E+02 0.  0.
          2    1    6    6  501    0 -0.18409448224E+02  0.25371325365E+02  0.55933425157E+02  0.64118327992E+02  0.00000000000E+00 0. -1.
         -1    1    6    6    0  501  0.10907486609E+02 -0.29599225171E+02 -0.46162671612E+01  0.31880986769E+02  0.00000000000E+00 0.  1.
          5    1    5    5  502    0 -0.19211660963E+02  0.83317698180E+02 -0.39761360387E+02  0.94413889480E+02  0.47000000000E+01 0. -1.
         11    1    4    4    0    0  0.65948529971E+02 -0.74557724016E+01 -0.10790057766E+03  0.12667806363E+03  0.00000000000E+00 0. -1.
        -12    1    4    4    0    0 -0.15539995590E+02 -0.14380242288E+02 -0.34977380165E+01  0.21459659886E+02  0.00000000000E+00 0.  1.
         -5    1    3    3    0  504 -0.23694911802E+02 -0.57253783684E+02 -0.30333658868E+03  0.30963627149E+03  0.47000000000E+01 0.  1.
<mgrwt>
<rscale>  2 0.19284630E+03</rscale>
<asrwt>0</asrwt>
<pdfrwt beam="1">  1       21 0.18846776E-01 0.19378336E+03</pdfrwt>
<pdfrwt beam="2">  1       21 0.80874331E-01 0.19378336E+03</pdfrwt>
<totfact> 0.34580668E+04</totfact>
</mgrwt>
</event>
<event>
12    1  0.2791583E-001  0.1733451E+03  0.7546771E-02  0.1174525E+00
         21   -1    0    0  502  503  0.00000000000E+00  0.00000000000E+00  0.22301932938E+02  0.22301932938E+02  0.00000000000E+00 0.  1.
         21   -1    0    0  503  504 -0.00000000000E+00 -0.00000000000E+00 -0.13441844426E+04  0.13441844426E+04  0.00000000000E+00 0.  1.
         -6    2    1    2    0  504 -0.12039798437E+02  0.11915830998E+02 -0.64618559809E+03  0.66890852659E+03  0.17203443258E+03 0.  0.
        -24    2    3    3    0    0  0.32490127223E+02 -0.44387981048E+01 -0.58509014017E+03  0.59141573241E+03  0.79792136931E+02 0.  0.
          6    2    1    2  502    0  0.12039798437E+02 -0.11915830998E+02 -0.67569691156E+03  0.69757784893E+03  0.17251549281E+03 0.  0.
         24    2    5    5    0    0 -0.27897655451E+01 -0.13827866807E+02 -0.67686139664E+03  0.68186104664E+03  0.81204334676E+02 0.  0.
          4    1    6    6  501    0  0.20750681285E+02 -0.57076971383E+01 -0.61208333215E+03  0.61246156947E+03  0.00000000000E+00 0. -1.
         -3    1    6    6    0  501 -0.23540446830E+02 -0.81201696691E+01 -0.64778064489E+02  0.69399477169E+02  0.00000000000E+00 0.  1.
          5    1    5    5  502    0  0.14829563982E+02  0.19120358092E+01  0.11644850815E+01  0.15716802294E+02  0.47000000000E+01 0. -1.
         11    1    4    4    0    0 -0.19287844745E+02 -0.14303660902E+02 -0.78493545425E+02  0.82084422051E+02  0.00000000000E+00 0. -1.
        -12    1    4    4    0    0  0.51777971967E+02  0.98648627973E+01 -0.50659659475E+03  0.50933131035E+03  0.00000000000E+00 0.  1.
         -5    1    3    3    0  504 -0.44529925660E+02  0.16354629103E+02 -0.61095457917E+02  0.77492794184E+02  0.47000000000E+01 0.  1.
<mgrwt>
<rscale>  2 0.17322533E+03</rscale>
<asrwt>0</asrwt>
<pdfrwt beam="1">  1       21 0.34310672E-02 0.17334514E+03</pdfrwt>
<pdfrwt beam="2">  1       21 0.20679757E+00 0.17334514E+03</pdfrwt>
<totfact> 0.62327533E+04</totfact>
</mgrwt>
</event>
<event>
12    1  0.2791583E-001  0.2100356E+03  0.7546771E-02  0.1141559E+00
         21   -1    0    0  502  503  0.00000000000E+00  0.00000000000E+00  0.15845357474E+03  0.15845357474E+03  0.00000000000E+00 0. -1.
         21   -1    0    0  503  504 -0.00000000000E+00 -0.00000000000E+00 -0.34175201927E+03  0.34175201927E+03  0.00000000000E+00 0. -1.
         -6    2    1    2    0  504  0.11223078343E+03  0.36052569218E+02 -0.19942425906E+03  0.28955181394E+03  0.17370861049E+03 0.  0.
        -24    2    3    3    0    0  0.94048932309E+02  0.68579624501E+02 -0.20700879998E+03  0.25123465986E+03  0.81962457750E+02 0.  0.
          6    2    1    2  502    0 -0.11223078343E+03 -0.36052569218E+02  0.16125814526E+02  0.21065378008E+03  0.17383738571E+03 0.  0.
         24    2    5    5    0    0 -0.10125842501E+03 -0.61708345440E+02  0.62234171089E+02  0.15655496264E+03  0.81087457377E+02 0.  0.
          2    1    6    6  501    0 -0.62577819172E+02 -0.79398452290E+02  0.42459183924E+02  0.10964889410E+03  0.00000000000E+00 0. -1.
         -1    1    6    6    0  501 -0.38680605842E+02  0.17690106849E+02  0.19774987166E+02  0.46906068542E+02  0.00000000000E+00 0.  1.
          5    1    5    5  502    0 -0.10972358412E+02  0.25655776222E+02 -0.46108356563E+02  0.54098817433E+02  0.47000000000E+01 0. -1.
         13    1    4    4    0    0  0.57135601136E+02  0.25066798467E+02 -0.17504245116E+03  0.18582970970E+03  0.00000000000E+00 0. -1.
        -14    1    4    4    0    0  0.36913331173E+02  0.43512826034E+02 -0.31966348829E+02  0.65404950158E+02  0.00000000000E+00 0.  1.
         -5    1    3    3    0  504  0.18181851117E+02 -0.32527055283E+02  0.75845409249E+01  0.38317154076E+02  0.47000000000E+01 0.  1.
<mgrwt>
<rscale>  2 0.21000900E+03</rscale>
<asrwt>0</asrwt>
<pdfrwt beam="1">  1       21 0.24377473E-01 0.21003565E+03</pdfrwt>
<pdfrwt beam="2">  1       21 0.52577233E-01 0.21003565E+03</pdfrwt>
<totfact> 0.54063040E+04</totfact>
</mgrwt>
</event>
<event>
12    1  0.2791583E-001  0.1843351E+03  0.7546771E-02  0.1165792E+00
         21   -1    0    0  502  503  0.00000000000E+00  0.00000000000E+00  0.10036578339E+04  0.10036578339E+04  0.00000000000E+00 0.  1.
         21   -1    0    0  503  504 -0.00000000000E+00 -0.00000000000E+00 -0.10331443140E+03  0.10331443140E+03  0.00000000000E+00 0.  1.
         -6    2    1    2    0  504 -0.29166345495E+02  0.14041915855E+02 -0.12241386755E+02  0.17595645916E+03  0.17251948545E+03 0.  0.
        -24    2    3    3    0    0  0.30492229573E+02  0.45177430172E+02  0.22550708770E+02  0.10005424745E+03  0.80817954107E+02 0.  0.
          6    2    1    2  502    0  0.29166345495E+02 -0.14041915855E+02  0.91258478923E+03  0.93101580612E+03  0.18147061085E+03 0.  0.
         24    2    5    5    0    0  0.90438830958E+02 -0.20935256897E+02  0.63234891479E+03  0.64403833149E+03  0.79389893938E+02 0.  0.
          4    1    6    6  501    0  0.24804660837E+02 -0.26704499152E+02  0.42296951779E+03  0.42453694121E+03  0.00000000000E+00 0. -1.
         -3    1    6    6    0  501  0.65634170121E+02  0.57692422557E+01  0.20937939700E+03  0.21950139027E+03  0.00000000000E+00 0.  1.
          5    1    5    5  502    0 -0.61272485463E+02  0.68933410419E+01  0.28023587444E+03  0.28697747464E+03  0.47000000000E+01 0. -1.
         13    1    4    4    0    0  0.38318387332E+02 -0.90097403241E+01  0.22428586266E+02  0.45304698546E+02  0.00000000000E+00 0. -1.
        -14    1    4    4    0    0 -0.78261577591E+01  0.54187170496E+02  0.12212250370E+00  0.54749548907E+02  0.00000000000E+00 0.  1.
         -5    1    3    3    0  504 -0.59658575068E+02 -0.31135514317E+02 -0.34792095525E+02  0.75902211707E+02  0.47000000000E+01 0.  1.
<mgrwt>
<rscale>  2 0.18209330E+03</rscale>
<asrwt>0</asrwt>
<pdfrwt beam="1">  1       21 0.15440889E+00 0.18433511E+03</pdfrwt>
<pdfrwt beam="2">  1       21 0.15894529E-01 0.18433511E+03</pdfrwt>
<totfact> 0.98343923E+03</totfact>
</mgrwt>
</event>
<event>
12    1  0.2791583E-001  0.1928505E+03  0.7546771E-02  0.1159829E+00
         21   -1    0    0  502  503  0.00000000000E+00  0.00000000000E+00  0.36608845188E+03  0.36608845188E+03  0.00000000000E+00 0. -1.
         21   -1    0    0  503  504 -0.00000000000E+00 -0.00000000000E+00 -0.49472954154E+03  0.49472954154E+03  0.00000000000E+00 0. -1.
         -6    2    1    2    0  504  0.15982454771E+02  0.15254063871E+01 -0.45158812840E+03  0.48467158037E+03  0.17526248140E+03 0.  0.
        -24    2    3    3    0    0  0.10406892352E+02 -0.66984291803E+02 -0.22749454506E+03  0.25022608620E+03  0.79146240772E+02 0.  0.
          6    2    1    2  502    0 -0.15982454771E+02 -0.15254063871E+01  0.32294703874E+03  0.37614641305E+03  0.19218108255E+03 0.  0.
         24    2    5    5    0    0  0.20010293991E+02  0.65266303413E+02  0.24771100026E+03  0.26919239513E+03  0.80272683517E+02 0.  0.
          4    1    6    6  501    0 -0.98249713676E+01 -0.83022285228E+01  0.10584845728E+03  0.10662716806E+03  0.00000000000E+00 0. -1.
         -3    1    6    6    0  501  0.29835265359E+02  0.73568531935E+02  0.14186254298E+03  0.16256522707E+03  0.00000000000E+00 0.  1.
          5    1    5    5  502    0 -0.35992748762E+02 -0.66791709800E+02  0.75236038479E+02  0.10695401791E+03  0.47000000000E+01 0. -1.
         13    1    4    4    0    0  0.29973552093E+02 -0.72936358423E+02 -0.20590168703E+03  0.22048499025E+03  0.00000000000E+00 0. -1.
        -14    1    4    4    0    0 -0.19566659741E+02  0.59520666200E+01 -0.21592858029E+02  0.29741095951E+02  0.00000000000E+00 0.  1.
         -5    1    3    3    0  504  0.55755624187E+01  0.68509698191E+02 -0.22409358334E+03  0.23444549417E+03  0.47000000000E+01 0.  1.
<mgrwt>
<rscale>  2 0.18849141E+03</rscale>
<asrwt>0</asrwt>
<pdfrwt beam="1">  1       21 0.56321300E-01 0.19285055E+03</pdfrwt>
<pdfrwt beam="2">  1       21 0.76112237E-01 0.19285055E+03</pdfrwt>
<totfact> 0.45627965E+03</totfact>
</mgrwt>
</event>
<event>
12    1  0.2791583E-001  0.2083403E+03  0.7546771E-02  0.1143066E+00
         21   -1    0    0  502  503  0.00000000000E+00  0.00000000000E+00  0.13121787012E+04  0.13121787012E+04  0.00000000000E+00 0.  1.
         21   -1    0    0  503  504 -0.00000000000E+00 -0.00000000000E+00 -0.33381242310E+02  0.33381242310E+02  0.00000000000E+00 0.  1.
         -6    2    1    2    0  504 -0.35107470356E+02  0.11048704073E+03  0.56047364361E+03  0.59763296360E+03  0.17203061749E+03 0.  0.
        -24    2    3    3    0    0 -0.88198231384E+02  0.93060603820E+02  0.42336821082E+03  0.44950363055E+03  0.79835254998E+02 0.  0.
          6    2    1    2  502    0  0.35107470356E+02 -0.11048704073E+03  0.71832381533E+03  0.74792697996E+03  0.17310616117E+03 0.  0.
         24    2    5    5    0    0  0.30012920791E+02 -0.12221236775E+03  0.71915863065E+03  0.73428056484E+03  0.78372020656E+02 0.  0.
          4    1    6    6  501    0  0.51355472128E+02 -0.69162714192E+02  0.33544461146E+03  0.34632925506E+03  0.00000000000E+00 0. -1.
         -3    1    6    6    0  501 -0.21342551337E+02 -0.53049653557E+02  0.38371401919E+03  0.38795130978E+03  0.00000000000E+00 0.  1.
          5    1    5    5  502    0  0.50945495646E+01  0.11725327015E+02 -0.83481532156E+00  0.13646415115E+02  0.47000000000E+01 0. -1.
         11    1    4    4    0    0 -0.22136564052E+02  0.17412551346E+02  0.22895889001E+03  0.23068462828E+03  0.00000000000E+00 0. -1.
        -12    1    4    4    0    0 -0.66061667331E+02  0.75648052474E+02  0.19440932081E+03  0.21881900226E+03  0.00000000000E+00 0.  1.
         -5    1    3    3    0  504  0.53090761028E+02  0.17426436914E+02  0.13710543279E+03  0.14812933306E+03  0.47000000000E+01 0.  1.
<mgrwt>
<rscale>  2 0.20811670E+03</rscale>
<asrwt>0</asrwt>
<pdfrwt beam="1">  1       21 0.20187361E+00 0.20834026E+03</pdfrwt>
<pdfrwt beam="2">  1       21 0.51355768E-02 0.20834026E+03</pdfrwt>
<totfact> 0.33208934E+04</totfact>
</mgrwt>
</event>
<event>
12    1  0.2791583E-001  0.2022524E+03  0.7546771E-02  0.1148256E+00
         21   -1    0    0  502  503  0.00000000000E+00  0.00000000000E+00  0.91900721179E+03  0.91900721179E+03  0.00000000000E+00 0. -1.
         21   -1    0    0  503  504 -0.00000000000E+00 -0.00000000000E+00 -0.45529973772E+02  0.45529973772E+02  0.00000000000E+00 0. -1.
         -6    2    1    2    0  504 -0.13944537078E+02 -0.10167981751E+03  0.34886544526E+03  0.40228851313E+03  0.17203404749E+03 0.  0.
        -24    2    3    3    0    0  0.45580005509E+02 -0.57098247799E+02  0.11572265638E+03  0.15752671559E+03  0.78007602971E+02 0.  0.
          6    2    1    2  502    0  0.13944537078E+02  0.10167981751E+03  0.52461179276E+03  0.56224867243E+03  0.17427794223E+03 0.  0.
         24    2    5    5    0    0  0.20732674291E+01  0.12162560285E+03  0.51740755380E+03  0.53749483526E+03  0.79956459979E+02 0.  0.
          4    1    6    6  501    0  0.12464209064E+02  0.12369335653E+03  0.50902084424E+03  0.52398246424E+03  0.00000000000E+00 0. -1.
         -3    1    6    6    0  501 -0.10390941635E+02 -0.20677536833E+01  0.83867095637E+01  0.13512371023E+02  0.00000000000E+00 0.  1.
          5    1    5    5  502    0  0.11871269649E+02 -0.19945785341E+02  0.72042389572E+01  0.24753837175E+02  0.47000000000E+01 0. -1.
         13    1    4    4    0    0 -0.16210397027E+02 -0.36242973389E+02  0.29721808871E+02  0.49595524137E+02  0.00000000000E+00 0. -1.
        -14    1    4    4    0    0  0.61790402536E+02 -0.20855274409E+02  0.86000847513E+02  0.10793119146E+03  0.00000000000E+00 0.  1.
         -5    1    3    3    0  504 -0.59524542587E+02 -0.44581569710E+02  0.23314278888E+03  0.24476179754E+03  0.47000000000E+01 0.  1.
<mgrwt>
<rscale>  2 0.20176810E+03</rscale>
<asrwt>0</asrwt>
<pdfrwt beam="1">  1       21 0.14138571E+00 0.20225241E+03</pdfrwt>
<pdfrwt beam="2">  1       21 0.70046120E-02 0.20225241E+03</pdfrwt>
<totfact> 0.52426889E+04</totfact>
</mgrwt>
</event>
<event>
12    1  0.2791583E-001  0.2040387E+03  0.7546771E-02  0.1147948E+00
         21   -1    0    0  502  503  0.00000000000E+00  0.00000000000E+00  0.36868440809E+03  0.36868440809E+03  0.00000000000E+00 0.  1.
         21   -1    0    0  503  504 -0.00000000000E+00 -0.00000000000E+00 -0.18377880716E+03  0.18377880716E+03  0.00000000000E+00 0.  1.
         -6    2    1    2    0  504 -0.91644298223E+02 -0.18473094621E+02 -0.82933033057E+02  0.22024915262E+03  0.18136115526E+03 0.  0.
        -24    2    3    3    0    0  0.19808836086E+02 -0.32352450630E+02 -0.57100875817E+02  0.10490693131E+03  0.79409591161E+02 0.  0.
          6    2    1    2  502    0  0.91644298223E+02  0.18473094621E+02  0.26783863399E+03  0.33221406262E+03  0.17288353572E+03 0.  0.
         24    2    5    5    0    0  0.10652699287E+03 -0.36798272076E+02  0.16305330548E+03  0.21272149530E+03  0.77213606921E+02 0.  0.
          4    1    6    6  501    0  0.64628469970E+02 -0.52873648096E+02  0.68293515527E+02  0.10787245272E+03  0.00000000000E+00 0. -1.
         -3    1    6    6    0  501  0.41898522899E+02  0.16075376020E+02  0.94759789958E+02  0.10484904257E+03  0.00000000000E+00 0.  1.
          5    1    5    5  502    0 -0.14882694645E+02  0.55271366698E+02  0.10478532850E+03  0.11949256732E+03  0.47000000000E+01 0. -1.
         13    1    4    4    0    0 -0.12998618555E+02 -0.17659751379E+01  0.15041148066E+02  0.19957927940E+02  0.00000000000E+00 0. -1.
        -14    1    4    4    0    0  0.32807454641E+02 -0.30586475492E+02 -0.72142023883E+02  0.84949003367E+02  0.00000000000E+00 0.  1.
         -5    1    3    3    0  504 -0.11145313431E+03  0.13879356009E+02 -0.25832157240E+02  0.11534222132E+03  0.47000000000E+01 0.  1.
<mgrwt>
<rscale>  2 0.20213808E+03</rscale>
<asrwt>0</asrwt>
<pdfrwt beam="1">  1       21 0.56720678E-01 0.20403872E+03</pdfrwt>
<pdfrwt beam="2">  1       21 0.28273663E-01 0.20403872E+03</pdfrwt>
<totfact> 0.34723804E+04</totfact>
</mgrwt>
</event>
<event>
12    1  0.2791583E-001  0.2124321E+03  0.7546771E-02  0.1139670E+00
         21   -1    0    0  502  503  0.00000000000E+00  0.00000000000E+00  0.44660795154E+03  0.44660795154E+03  0.00000000000E+00 0.  1.
         21   -1    0    0  503  504 -0.00000000000E+00 -0.00000000000E+00 -0.16302161060E+03  0.16302161060E+03  0.00000000000E+00 0.  1.
         -6    2    1    2    0  504  0.21558451111E+02 -0.12170653347E+03 -0.46191746136E+02  0.21739616144E+03  0.17277200727E+03 0.  0.
        -24    2    3    3    0    0 -0.18984544257E+02 -0.50703473311E+01 -0.33450985503E+02  0.93169950954E+02  0.84708618138E+02 0.  0.
          6    2    1    2  502    0 -0.21558451111E+02  0.12170653347E+03  0.32977808708E+03  0.39223340070E+03  0.17267370038E+03 0.  0.
         24    2    5    5    0    0 -0.56828863000E+02  0.13986862433E+03  0.23508423016E+03  0.28945752786E+03  0.75685622309E+02 0.  0.
          2    1    6    6  501    0 -0.50838383413E+02  0.39141640222E+02  0.62686165538E+02  0.89700415702E+02  0.00000000000E+00 0. -1.
         -1    1    6    6    0  501 -0.59904795873E+01  0.10072698411E+03  0.17239806462E+03  0.19975711216E+03  0.00000000000E+00 0.  1.
          5    1    5    5  502    0  0.35270411889E+02 -0.18162090858E+02  0.94693856921E+02  0.10277587284E+03  0.47000000000E+01 0. -1.
         13    1    4    4    0    0  0.20820633361E+02 -0.17804642098E+02  0.13307610455E+02  0.30456469753E+02  0.00000000000E+00 0. -1.
        -14    1    4    4    0    0 -0.39805177618E+02  0.12734294767E+02 -0.46758595958E+02  0.62713481201E+02  0.00000000000E+00 0.  1.
         -5    1    3    3    0  504  0.40542995368E+02 -0.11663618614E+03 -0.12740760634E+02  0.12422621049E+03  0.47000000000E+01 0.  1.
<mgrwt>
<rscale>  2 0.21241215E+03</rscale>
<asrwt>0</asrwt>
<pdfrwt beam="1">  1       21 0.68708915E-01 0.21243214E+03</pdfrwt>
<pdfrwt beam="2">  1       21 0.25080248E-01 0.21243214E+03</pdfrwt>
<totfact> 0.28745421E+04</totfact>
</mgrwt>
</event>
<event>
12    1  0.2791583E-001  0.2143962E+03  0.7546771E-02  0.1138205E+00
         21   -1    0    0  502  503  0.00000000000E+00  0.00000000000E+00  0.22882891434E+03  0.22882891434E+03  0.00000000000E+00 0.  1.
         21   -1    0    0  503  504 -0.00000000000E+00 -0.00000000000E+00 -0.20706404798E+03  0.20706404798E+03  0.00000000000E+00 0. -1.
         -6    2    1    2    0  504  0.19901554914E+02 -0.12399787647E+03  0.49650868858E+02  0.22007031672E+03  0.17376475553E+03 0.  0.
        -24    2    3    3    0    0 -0.42474292298E+02 -0.10596862146E+03  0.64458471897E+02  0.15330838550E+03  0.79467932059E+02 0.  0.
          6    2    1    2  502    0 -0.19901554914E+02  0.12399787647E+03 -0.27886002497E+02  0.21582264559E+03  0.17329235401E+03 0.  0.
         24    2    5    5    0    0 -0.82899797834E+01  0.11388901369E+03  0.43258401919E+02  0.14287996904E+03  0.74188712158E+02 0.  0.
          2    1    6    6  501    0 -0.33531687050E+02  0.75613835721E+02  0.44896724498E+01  0.82837089202E+02  0.00000000000E+00 0. -1.
         -1    1    6    6    0  501  0.25241707267E+02  0.38275177968E+02  0.38768729469E+02  0.60042879835E+02  0.00000000000E+00 0.  1.
          5    1    5    5  502    0 -0.11611575131E+02  0.10108862784E+02 -0.71144404415E+02  0.72942676558E+02  0.47000000000E+01 0. -1.
         11    1    4    4    0    0 -0.36358228983E+02 -0.40559435608E+02 -0.85024308923E+01  0.55129664997E+02  0.00000000000E+00 0. -1.
        -12    1    4    4    0    0 -0.61160633153E+01 -0.65409185853E+02  0.72960902789E+02  0.98178720506E+02  0.00000000000E+00 0.  1.
         -5    1    3    3    0  504  0.62375847213E+02 -0.18029255013E+02 -0.14807603039E+02  0.66761931215E+02  0.47000000000E+01 0.  1.
<mgrwt>
<rscale>  2 0.21430047E+03</rscale>
<asrwt>0</asrwt>
<pdfrwt beam="1">  1       21 0.35204448E-01 0.21439621E+03</pdfrwt>
<pdfrwt beam="2">  1       21 0.31856007E-01 0.21439621E+03</pdfrwt>
<totfact> 0.73020202E+04</totfact>
</mgrwt>
</event>
<event>
12    1  0.2791583E-001  0.3055650E+03  0.7546771E-02  0.1082754E+00
         21   -1    0    0  502  503  0.00000000000E+00  0.00000000000E+00  0.10130152056E+04  0.10130152056E+04  0.00000000000E+00 0. -1.
         21   -1    0    0  503  504 -0.00000000000E+00 -0.00000000000E+00 -0.10853467460E+03  0.10853467460E+03  0.00000000000E+00 0.  1.
         -6    2    1    2    0  504 -0.22589496281E+03  0.10609244303E+03  0.22890587009E+03  0.38008438856E+03  0.17257492394E+03 0.  0.
        -24    2    3    3    0    0 -0.19407958475E+03  0.11297229023E+03  0.12122646343E+03  0.26749444586E+03  0.80173558938E+02 0.  0.
          6    2    1    2  502    0  0.22589496281E+03 -0.10609244303E+03  0.67557466087E+03  0.74146549161E+03  0.17631169030E+03 0.  0.
         24    2    5    5    0    0  0.69007191202E+02 -0.95676027081E+02  0.25029702619E+03  0.28802814074E+03  0.79973207647E+02 0.  0.
          4    1    6    6  501    0  0.78020301382E+02 -0.10313013135E+03  0.23913135065E+03  0.27185804068E+03  0.00000000000E+00 0. -1.
         -3    1    6    6    0  501 -0.90131101794E+01  0.74541042671E+01  0.11165675538E+02  0.16170100054E+02  0.00000000000E+00 0.  1.
          5    1    5    5  502    0  0.15688777160E+03 -0.10416415951E+02  0.42527763469E+03  0.45343735087E+03  0.47000000000E+01 0. -1.
         11    1    4    4    0    0 -0.88389517565E+01  0.13394603008E+02  0.38120584161E+02  0.41360867915E+02  0.00000000000E+00 0. -1.
        -12    1    4    4    0    0 -0.18524063300E+03  0.99577687222E+02  0.83105879270E+02  0.22613357795E+03  0.00000000000E+00 0.  1.
         -5    1    3    3    0  504 -0.31815378053E+02 -0.68798471977E+01  0.10767940666E+03  0.11258994270E+03  0.47000000000E+01 0.  1.
<mgrwt>
<rscale>  2 0.30502837E+03</rscale>
<asrwt>0</asrwt>
<pdfrwt beam="1">  1       21 0.15584849E+00 0.30556497E+03</pdfrwt>
<pdfrwt beam="2">  1       21 0.16697643E-01 0.30556497E+03</pdfrwt>
<totfact> 0.81052472E+03</totfact>
</mgrwt>
</event>
<event>
12    1  0.2791583E-001  0.2524752E+03  0.7546771E-02  0.1113483E+00
         21   -1    0    0  502  503  0.00000000000E+00  0.00000000000E+00  0.60256126219E+03  0.60256126219E+03  0.00000000000E+00 0.  1.
         21   -1    0    0  503  504 -0.00000000000E+00 -0.00000000000E+00 -0.10193764870E+03  0.10193764870E+03  0.00000000000E+00 0. -1.
         -6    2    1    2    0  504  0.76463168475E+02  0.15105540753E+03  0.27289081841E+03  0.36449018841E+03  0.17239299984E+03 0.  0.
        -24    2    3    3    0    0  0.51846364585E+01  0.19098715509E+02  0.14382478657E+03  0.16656765743E+03  0.81655213415E+02 0.  0.
          6    2    1    2  502    0 -0.76463168475E+02 -0.15105540753E+03  0.22773279508E+03  0.34000872248E+03  0.18729482944E+03 0.  0.
         24    2    5    5    0    0 -0.11684593324E+03 -0.78814403142E+02  0.18817999184E+03  0.24816077940E+03  0.79419020680E+02 0.  0.
          2    1    6    6  501    0 -0.30084650382E+02 -0.29545708283E+02  0.90633209327E+01  0.43129790782E+02  0.00000000000E+00 0. -1.
         -1    1    6    6    0  501 -0.86761282856E+02 -0.49268694859E+02  0.17911667091E+03  0.20503098862E+03  0.00000000000E+00 0.  1.
          5    1    5    5  502    0  0.40382764763E+02 -0.72241004390E+02  0.39552803231E+02  0.91847943083E+02  0.47000000000E+01 0. -1.
         11    1    4    4    0    0  0.10831127369E+02 -0.20766569240E+02  0.77643554259E+01  0.24674864402E+02  0.00000000000E+00 0. -1.
        -12    1    4    4    0    0 -0.56464909101E+01  0.39865284749E+02  0.13606043115E+03  0.14189279302E+03  0.00000000000E+00 0.  1.
         -5    1    3    3    0  504  0.71278532017E+02  0.13195669202E+03  0.12906603183E+03  0.19792253098E+03  0.47000000000E+01 0.  1.
<mgrwt>
<rscale>  2 0.24971834E+03</rscale>
<asrwt>0</asrwt>
<pdfrwt beam="1">  1       21 0.92701730E-01 0.25247516E+03</pdfrwt>
<pdfrwt beam="2">  1       21 0.15682716E-01 0.25247516E+03</pdfrwt>
<totfact> 0.34433414E+04</totfact>
</mgrwt>
</event>
<event>
12    1  0.2791583E-001  0.1787822E+03  0.7546771E-02  0.1169117E+00
         21   -1    0    0  502  503  0.00000000000E+00  0.00000000000E+00  0.55780837115E+02  0.55780837115E+02  0.00000000000E+00 0. -1.
         21   -1    0    0  503  504 -0.00000000000E+00 -0.00000000000E+00 -0.60663600588E+03  0.60663600588E+03  0.00000000000E+00 0. -1.
         -6    2    1    2    0  504  0.38199917841E+01  0.44198085278E+02 -0.19588722509E+03  0.26520724657E+03  0.17319069143E+03 0.  0.
        -24    2    3    3    0    0  0.54972940267E+02  0.70767714671E+02 -0.11543840873E+03  0.16612812970E+03  0.79009085984E+02 0.  0.
          6    2    1    2  502    0 -0.38199917841E+01 -0.44198085278E+02 -0.35496794368E+03  0.39720959643E+03  0.17264170810E+03 0.  0.
         24    2    5    5    0    0 -0.13502288725E+02 -0.62403054284E+02 -0.10669593471E+03  0.14803847409E+03  0.80342481558E+02 0.  0.
          4    1    6    6  501    0  0.13537136946E+02 -0.68243319412E+02 -0.95593275637E+02  0.11823061815E+03  0.00000000000E+00 0. -1.
         -3    1    6    6    0  501 -0.27039425671E+02  0.58402651287E+01 -0.11102659075E+02  0.29807855943E+02  0.00000000000E+00 0.  1.
          5    1    5    5  502    0  0.96822969409E+01  0.18204969006E+02 -0.24827200897E+03  0.24917112234E+03  0.47000000000E+01 0. -1.
         13    1    4    4    0    0 -0.17005785835E+02  0.33310064890E+02 -0.27145396581E+02  0.46212874077E+02  0.00000000000E+00 0. -1.
        -14    1    4    4    0    0  0.71978726102E+02  0.37457649781E+02 -0.88293012146E+02  0.11991525563E+03  0.00000000000E+00 0.  1.
         -5    1    3    3    0  504 -0.51152948483E+02 -0.26569629393E+02 -0.80448816359E+02  0.99079116862E+02  0.47000000000E+01 0.  1.
<mgrwt>
<rscale>  2 0.17864912E+03</rscale>
<asrwt>0</asrwt>
<pdfrwt beam="1">  1       21 0.85816672E-02 0.17878221E+03</pdfrwt>
<pdfrwt beam="2">  1       21 0.93328617E-01 0.17878221E+03</pdfrwt>
<totfact> 0.10309126E+05</totfact>
</mgrwt>
</event>
<event>
12    1  0.2791583E-001  0.1908923E+03  0.7546771E-02  0.1158045E+00
         21   -1    0    0  502  503  0.00000000000E+00  0.00000000000E+00  0.19337873235E+03  0.19337873235E+03  0.00000000000E+00 0.  1.
         21   -1    0    0  503  504 -0.00000000000E+00 -0.00000000000E+00 -0.20760835592E+03  0.20760835592E+03  0.00000000000E+00 0.  1.
         -6    2    1    2    0  504  0.96119721498E+00  0.76773254089E+02 -0.70694454738E+02  0.20356221875E+03  0.17477074849E+03 0.  0.
        -24    2    3    3    0    0 -0.56173719487E+02  0.41791635647E+02 -0.10360345453E+01  0.10680221751E+03  0.80644979551E+02 0.  0.
          6    2    1    2  502    0 -0.96119721498E+00 -0.76773254089E+02  0.56464831165E+02  0.19742486952E+03  0.17289663242E+03 0.  0.
         24    2    5    5    0    0 -0.16583910143E+01 -0.48365616163E+02  0.10550409862E+03  0.14055291049E+03  0.79259212295E+02 0.  0.
          2    1    6    6  501    0 -0.40498696226E+01 -0.56133065321E+02  0.28431402088E+02  0.63052891218E+02  0.00000000000E+00 0. -1.
         -1    1    6    6    0  501  0.23914786083E+01  0.77674491576E+01  0.77072696528E+02  0.77500019268E+02  0.00000000000E+00 0.  1.
          5    1    5    5  502    0  0.69719379934E+00 -0.28407637926E+02 -0.49039267452E+02  0.56871959030E+02  0.47000000000E+01 0. -1.
         13    1    4    4    0    0 -0.60148143630E+02  0.47561140862E+02 -0.25926388838E+02  0.80944665917E+02  0.00000000000E+00 0. -1.
        -14    1    4    4    0    0  0.39744241435E+01 -0.57695052147E+01  0.24890354292E+02  0.25857551595E+02  0.00000000000E+00 0.  1.
         -5    1    3    3    0  504  0.57134916702E+02  0.34981618442E+02 -0.69658420192E+02  0.96760001235E+02  0.47000000000E+01 0.  1.
<mgrwt>
<rscale>  2 0.19046227E+03</rscale>
<asrwt>0</asrwt>
<pdfrwt beam="1">  1       21 0.29750574E-01 0.19089230E+03</pdfrwt>
<pdfrwt beam="2">  1       21 0.31939747E-01 0.19089230E+03</pdfrwt>
<totfact> 0.10217501E+05</totfact>
</mgrwt>
</event>
<event>
12    1  0.2791583E-001  0.3324931E+03  0.7546771E-02  0.1070049E+00
         21   -1    0    0  502  503  0.00000000000E+00  0.00000000000E+00  0.90521399754E+02  0.90521399754E+02  0.00000000000E+00 0. -1.
         21   -1    0    0  503  504 -0.00000000000E+00 -0.00000000000E+00 -0.12573554908E+04  0.12573554908E+04  0.00000000000E+00 0.  1.
         -6    2    1    2    0  504 -0.27848226175E+03 -0.50211245304E+02 -0.69819430940E+03  0.77332203512E+03  0.17457988731E+03 0.  0.
        -24    2    3    3    0    0 -0.98131167804E+02  0.33077055720E+02 -0.26209762039E+03  0.29408736365E+03  0.84073760068E+02 0.  0.
          6    2    1    2  502    0  0.27848226175E+03  0.50211245304E+02 -0.46863978161E+03  0.57455485540E+03  0.17440326170E+03 0.  0.
         24    2    5    5    0    0  0.12840994429E+03 -0.39994455786E+02 -0.23484174478E+03  0.28242067219E+03  0.80759647716E+02 0.  0.
          2    1    6    6  501    0  0.54132165731E+01 -0.33212948841E+02 -0.53157552834E+02  0.62913657561E+02  0.00000000000E+00 0. -1.
         -1    1    6    6    0  501  0.12299672772E+03 -0.67815069452E+01 -0.18168419195E+03  0.21950701463E+03  0.00000000000E+00 0.  1.
          5    1    5    5  502    0  0.15007231746E+03  0.90205701090E+02 -0.23379803682E+03  0.29213418321E+03  0.47000000000E+01 0. -1.
         11    1    4    4    0    0 -0.75802752211E+01  0.24505674315E+02 -0.12703042433E+02  0.28624394022E+02  0.00000000000E+00 0. -1.
        -12    1    4    4    0    0 -0.90550892583E+02  0.85713814049E+01 -0.24939457796E+03  0.26546296963E+03  0.00000000000E+00 0.  1.
         -5    1    3    3    0  504 -0.18035109395E+03 -0.83288301024E+02 -0.43609668900E+03  0.47923467147E+03  0.47000000000E+01 0.  1.
<mgrwt>
<rscale>  2 0.33246994E+03</rscale>
<asrwt>0</asrwt>
<pdfrwt beam="1">  1       21 0.13926371E-01 0.33249312E+03</pdfrwt>
<pdfrwt beam="2">  1       21 0.19343928E+00 0.33249312E+03</pdfrwt>
<totfact> 0.60456327E+03</totfact>
</mgrwt>
</event>
<event>
12    1  0.2791583E-001  0.1838980E+03  0.7546771E-02  0.1164408E+00
         21   -1    0    0  502  503  0.00000000000E+00  0.00000000000E+00  0.14865072364E+03  0.14865072364E+03  0.00000000000E+00 0. -1.
         21   -1    0    0  503  504 -0.00000000000E+00 -0.00000000000E+00 -0.47842937559E+03  0.47842937559E+03  0.00000000000E+00 0. -1.
         -6    2    1    2    0  504  0.39467245658E+02 -0.42460553974E+02 -0.39301850745E+03  0.43391477891E+03  0.17452199300E+03 0.  0.
        -24    2    3    3    0    0  0.44562200321E+02 -0.93711431288E+02 -0.31294480347E+03  0.33859164921E+03  0.77085879659E+02 0.  0.
          6    2    1    2  502    0 -0.39467245658E+02  0.42460553974E+02  0.63239855497E+02  0.19316532031E+03  0.17306934889E+03 0.  0.
         24    2    5    5    0    0  0.18638729962E+01  0.95300753569E+02  0.44343940809E+02  0.12331194778E+03  0.64449544024E+02 0.  0.
          2    1    6    6  501    0 -0.26382923271E+02  0.75748209319E+02  0.36224243762E+02  0.88011622480E+02  0.00000000000E+00 0. -1.
         -1    1    6    6    0  501  0.28246796267E+02  0.19552544250E+02  0.81196970472E+01  0.35300325298E+02  0.00000000000E+00 0.  1.
          5    1    5    5  502    0 -0.41331118654E+02 -0.52840199595E+02  0.18895914688E+02  0.69853372534E+02  0.47000000000E+01 0. -1.
         11    1    4    4    0    0  0.42727154151E+02 -0.96218082190E+02 -0.20365095790E+03  0.22925366234E+03  0.00000000000E+00 0. -1.
        -12    1    4    4    0    0  0.18350461700E+01  0.25066509019E+01 -0.10929384557E+03  0.10933798687E+03  0.00000000000E+00 0.  1.
         -5    1    3    3    0  504 -0.50949546631E+01  0.51250877314E+02 -0.80073703977E+02  0.95323129707E+02  0.47000000000E+01 0.  1.
<mgrwt>
<rscale>  2 0.18355256E+03</rscale>
<asrwt>0</asrwt>
<pdfrwt beam="1">  1       21 0.22869342E-01 0.18389804E+03</pdfrwt>
<pdfrwt beam="2">  1       21 0.73604519E-01 0.18389804E+03</pdfrwt>
<totfact> 0.29886324E+04</totfact>
</mgrwt>
</event>
<event>
12    1  0.2791583E-001  0.1965850E+03  0.7546771E-02  0.1153345E+00
         21   -1    0    0  502  503  0.00000000000E+00  0.00000000000E+00  0.16156029954E+03  0.16156029954E+03  0.00000000000E+00 0.  1.
         21   -1    0    0  503  504 -0.00000000000E+00 -0.00000000000E+00 -0.34780173856E+03  0.34780173856E+03  0.00000000000E+00 0.  1.
         -6    2    1    2    0  504  0.12834936546E+02 -0.92693678620E+02 -0.23844810140E+03  0.30903583348E+03  0.17288376344E+03 0.  0.
        -24    2    3    3    0    0 -0.74894754673E+00 -0.91882841550E+02 -0.25731404454E+03  0.28530414213E+03  0.82127452838E+02 0.  0.
          6    2    1    2  502    0 -0.12834936546E+02  0.92693678620E+02  0.52206662383E+02  0.20032620461E+03  0.16925778861E+03 0.  0.
         24    2    5    5    0    0  0.33378530222E+02  0.88150745254E+02 -0.68631542697E+01  0.12504236841E+03  0.81876802834E+02 0.  0.
          4    1    6    6  501    0  0.43002280874E+02  0.35381152605E+02  0.26710842603E+02  0.61761567602E+02  0.00000000000E+00 0. -1.
         -3    1    6    6    0  501 -0.96237506523E+01  0.52769592649E+02 -0.33573996872E+02  0.63280800808E+02  0.00000000000E+00 0.  1.
          5    1    5    5  502    0 -0.46213466768E+02  0.45429333656E+01  0.59069816653E+02  0.75283836205E+02  0.47000000000E+01 0. -1.
         11    1    4    4    0    0 -0.20364860148E+02 -0.31976259714E+02 -0.27060221554E+02  0.46577508571E+02  0.00000000000E+00 0. -1.
        -12    1    4    4    0    0  0.19615912602E+02 -0.59906581836E+02 -0.23025382298E+03  0.23872663356E+03  0.00000000000E+00 0.  1.
         -5    1    3    3    0  504  0.13583884093E+02 -0.81083706977E+00  0.18865943135E+02  0.23731691347E+02  0.47000000000E+01 0.  1.
<mgrwt>
<rscale>  2 0.19578482E+03</rscale>
<asrwt>0</asrwt>
<pdfrwt beam="1">  1       21 0.24855431E-01 0.19658497E+03</pdfrwt>
<pdfrwt beam="2">  1       21 0.53507960E-01 0.19658497E+03</pdfrwt>
<totfact> 0.50531136E+04</totfact>
</mgrwt>
</event>
<event>
12    1  0.2791583E-001  0.1755980E+03  0.7546771E-02  0.1173129E+00
         21   -1    0    0  502  503  0.00000000000E+00  0.00000000000E+00  0.39043661193E+03  0.39043661193E+03  0.00000000000E+00 0.  1.
         21   -1    0    0  503  504 -0.00000000000E+00 -0.00000000000E+00 -0.11637565268E+03  0.11637565268E+03  0.00000000000E+00 0.  1.
         -6    2    1    2    0  504  0.19055278597E+01  0.25762813316E+02 -0.89333925548E+01  0.17582509129E+03  0.17368737328E+03 0.  0.
        -24    2    3    3    0    0  0.32022297324E+02  0.18598878624E+02 -0.59613776842E+02  0.11625216862E+03  0.92679115812E+02 0.  0.
          6    2    1    2  502    0 -0.19055278597E+01 -0.25762813316E+02  0.28299435180E+03  0.33098717332E+03  0.16970371878E+03 0.  0.
         24    2    5    5    0    0 -0.25556268520E+02 -0.71179547216E+02  0.13871160362E+03  0.17781524811E+03  0.81594746633E+02 0.  0.
          4    1    6    6  501    0  0.10025224281E+01 -0.80040380998E+02  0.11960364310E+03  0.14391837647E+03  0.00000000000E+00 0. -1.
         -3    1    6    6    0  501 -0.26558790948E+02  0.88608337821E+01  0.19107960522E+02  0.33896871644E+02  0.00000000000E+00 0.  1.
          5    1    5    5  502    0  0.23650740660E+02  0.45416733900E+02  0.14428274817E+03  0.15317192521E+03  0.47000000000E+01 0. -1.
         11    1    4    4    0    0 -0.31869314588E+02  0.16152636943E+02 -0.18481487851E+02  0.40225940457E+02  0.00000000000E+00 0. -1.
        -12    1    4    4    0    0  0.63891611912E+02  0.24462416818E+01 -0.41132288991E+02  0.76026228164E+02  0.00000000000E+00 0.  1.
         -5    1    3    3    0  504 -0.30116769465E+02  0.71639346919E+01  0.50680384287E+02  0.59572922664E+02  0.47000000000E+01 0.  1.
<mgrwt>
<rscale>  2 0.17460478E+03</rscale>
<asrwt>0</asrwt>
<pdfrwt beam="1">  1       21 0.60067170E-01 0.17559800E+03</pdfrwt>
<pdfrwt beam="2">  1       21 0.17903947E-01 0.17559800E+03</pdfrwt>
<totfact> 0.73831518E+04</totfact>
</mgrwt>
</event>
<event>
12    1  0.2791583E-001  0.2404467E+03  0.7546771E-02  0.1119520E+00
         21   -1    0    0  502  503  0.00000000000E+00  0.00000000000E+00  0.52334438419E+03  0.52334438419E+03  0.00000000000E+00 0. -1.
         21   -1    0    0  503  504 -0.00000000000E+00 -0.00000000000E+00 -0.18097429924E+03  0.18097429924E+03  0.00000000000E+00 0. -1.
         -6    2    1    2    0  504 -0.30169831048E+02  0.16447180370E+03 -0.48692467993E+02  0.24532745468E+03  0.17278139560E+03 0.  0.
        -24    2    3    3    0    0 -0.67253044338E+02  0.13394264491E+03 -0.80591578678E+02  0.18747559640E+03  0.78666972702E+02 0.  0.
          6    2    1    2  502    0  0.30169831048E+02 -0.16447180370E+03  0.39106255294E+03  0.45899122874E+03  0.17257414301E+03 0.  0.
         24    2    5    5    0    0  0.16331446413E+02 -0.92067817123E+01  0.11558742830E+03  0.14243576404E+03  0.81092615720E+02 0.  0.
          2    1    6    6  501    0  0.19599376030E+02 -0.11899990151E+02  0.12762846504E+03  0.12967177949E+03  0.00000000000E+00 0. -1.
         -1    1    6    6    0  501 -0.32679296170E+01  0.26932084391E+01 -0.12041036744E+02  0.12763984548E+02  0.00000000000E+00 0.  1.
          5    1    5    5  502    0  0.13838384636E+02 -0.15526502199E+03  0.27547512464E+03  0.31655546471E+03  0.47000000000E+01 0. -1.
         13    1    4    4    0    0 -0.27457680616E+02 -0.20851446977E+01 -0.13533021243E+02  0.30682482253E+02  0.00000000000E+00 0. -1.
        -14    1    4    4    0    0 -0.39795363722E+02  0.13602778961E+03 -0.67058557435E+02  0.15679311415E+03  0.00000000000E+00 0.  1.
         -5    1    3    3    0  504  0.37083213290E+02  0.30529158789E+02  0.31899110686E+02  0.57851858283E+02  0.47000000000E+01 0.  1.
<mgrwt>
<rscale>  2 0.24040945E+03</rscale>
<asrwt>0</asrwt>
<pdfrwt beam="1">  1       21 0.80514520E-01 0.24044668E+03</pdfrwt>
<pdfrwt beam="2">  1       21 0.27842200E-01 0.24044668E+03</pdfrwt>
<totfact> 0.16234390E+04</totfact>
</mgrwt>
</event>
<event>
12    1  0.2791583E-001  0.2196325E+03  0.7546771E-02  0.1134512E+00
         21   -1    0    0  502  503  0.00000000000E+00  0.00000000000E+00  0.12804276114E+03  0.12804276114E+03  0.00000000000E+00 0. -1.
         21   -1    0    0  503  504 -0.00000000000E+00 -0.00000000000E+00 -0.23405786402E+04  0.23405786402E+04  0.00000000000E+00 0. -1.
         -6    2    1    2    0  504  0.88807169822E+02 -0.10188851905E+03 -0.22370526103E+04  0.22476247441E+04  0.17071797088E+03 0.  0.
        -24    2    3    3    0    0  0.12389981143E+03 -0.49893149047E+02 -0.16276608191E+04  0.16349947929E+04  0.78023978292E+02 0.  0.
          6    2    1    2  502    0 -0.88807169822E+02  0.10188851905E+03  0.24516731180E+02  0.22099665725E+03  0.17311981019E+03 0.  0.
         24    2    5    5    0    0 -0.31505047603E+02  0.36864538010E+02 -0.47431006789E+02  0.10825705320E+03  0.84370178234E+02 0.  0.
          2    1    6    6  501    0 -0.50433479455E+02  0.44049571359E+02 -0.54988150756E+02  0.86646392368E+02  0.00000000000E+00 0. -1.
         -1    1    6    6    0  501  0.18928431852E+02 -0.71850333495E+01  0.75571439671E+01  0.21610660831E+02  0.00000000000E+00 0.  1.
          5    1    5    5  502    0 -0.57302122219E+02  0.65023981044E+02  0.71947737969E+02  0.11273960405E+03  0.47000000000E+01 0. -1.
         13    1    4    4    0    0  0.90927998443E+02 -0.67017779948E+02 -0.13729047694E+04  0.13775437523E+04  0.00000000000E+00 0. -1.
        -14    1    4    4    0    0  0.32971812983E+02  0.17124630901E+02 -0.25475604969E+03  0.25745104057E+03  0.00000000000E+00 0.  1.
         -5    1    3    3    0  504 -0.35092641604E+02 -0.51995370006E+02 -0.60939179119E+03  0.61262995125E+03  0.47000000000E+01 0.  1.
<mgrwt>
<rscale>  2 0.21915897E+03</rscale>
<asrwt>0</asrwt>
<pdfrwt beam="1">  1       21 0.19698886E-01 0.21963254E+03</pdfrwt>
<pdfrwt beam="2">  1       21 0.36008903E+00 0.21963254E+03</pdfrwt>
<totfact> 0.34735445E+02</totfact>
</mgrwt>
</event>
<event>
12    1  0.2791583E-001  0.2274259E+03  0.7546771E-02  0.1128555E+00
         21   -1    0    0  502  503  0.00000000000E+00  0.00000000000E+00  0.13925734037E+04  0.13925734037E+04  0.00000000000E+00 0. -1.
         21   -1    0    0  503  504 -0.00000000000E+00 -0.00000000000E+00 -0.63570795115E+02  0.63570795115E+02  0.00000000000E+00 0. -1.
         -6    2    1    2    0  504  0.11672572335E+03 -0.90474472738E+02  0.19475321980E+03  0.29941835694E+03  0.17295089229E+03 0.  0.
        -24    2    3    3    0    0  0.11651479830E+03 -0.36417585097E+02  0.68253808569E+02  0.16177249747E+03  0.81300798431E+02 0.  0.
          6    2    1    2  502    0 -0.11672572335E+03  0.90474472738E+02  0.11342493887E+04  0.11567258418E+04  0.17228601966E+03 0.  0.
         24    2    5    5    0    0 -0.64278939634E+02 -0.30087591213E+01  0.76944084818E+03  0.77646653421E+03  0.81976979600E+02 0.  0.
          4    1    6    6  501    0 -0.37887605724E+02 -0.31554073208E+02  0.21143157431E+03  0.21710467710E+03  0.00000000000E+00 0. -1.
         -3    1    6    6    0  501 -0.26391333910E+02  0.28545314086E+02  0.55800927387E+03  0.55936185711E+03  0.00000000000E+00 0.  1.
          5    1    5    5  502    0 -0.52446783718E+02  0.93483231860E+02  0.36480854057E+03  0.38025930762E+03  0.47000000000E+01 0. -1.
         11    1    4    4    0    0  0.34340766785E+01 -0.33292015774E+02  0.17792900010E+02  0.37904333363E+02  0.00000000000E+00 0. -1.
        -12    1    4    4    0    0  0.11308072162E+03 -0.31255693229E+01  0.50460908559E+02  0.12386816410E+03  0.00000000000E+00 0.  1.
         -5    1    3    3    0  504  0.21092505405E+00 -0.54056887641E+02  0.12649941123E+03  0.13764585948E+03  0.47000000000E+01 0.  1.
<mgrwt>
<rscale>  2 0.22729948E+03</rscale>
<asrwt>0</asrwt>
<pdfrwt beam="1">  1       21 0.21424204E+00 0.22742589E+03</pdfrwt>
<pdfrwt beam="2">  1       21 0.97801233E-02 0.22742589E+03</pdfrwt>
<totfact> 0.89497057E+03</totfact>
</mgrwt>
</event>
<event>
12    1  0.2791583E-001  0.4098935E+03  0.7546771E-02  0.1040417E+00
         21   -1    0    0  502  503  0.00000000000E+00  0.00000000000E+00  0.62889202348E+03  0.62889202348E+03  0.00000000000E+00 0. -1.
         21   -1    0    0  503  504 -0.00000000000E+00 -0.00000000000E+00 -0.29000323097E+03  0.29000323097E+03  0.00000000000E+00 0.  1.
         -6    2    1    2    0  504 -0.17694511839E+03 -0.32679495570E+03  0.40241267023E+02  0.41174335186E+03  0.17265199170E+03 0.  0.
        -24    2    3    3    0    0 -0.18553467320E+03 -0.28237805571E+03 -0.51586618869E+01  0.34747917053E+03  0.80960983547E+02 0.  0.
          6    2    1    2  502    0  0.17694511839E+03  0.32679495570E+03  0.29864752549E+03  0.50715190259E+03  0.17293984452E+03 0.  0.
         24    2    5    5    0    0  0.78026574481E+02  0.12408220125E+03  0.54385921117E+02  0.17464151100E+03  0.77828593426E+02 0.  0.
          2    1    6    6  501    0  0.34043114822E+01  0.76925920916E+02  0.17459663156E+02  0.78955851480E+02  0.00000000000E+00 0. -1.
         -1    1    6    6    0  501  0.74622262999E+02  0.47156280338E+02  0.36926257961E+02  0.95685659518E+02  0.00000000000E+00 0.  1.
          5    1    5    5  502    0  0.98918543912E+02  0.20271275444E+03  0.24426160437E+03  0.33251039159E+03  0.47000000000E+01 0. -1.
         13    1    4    4    0    0 -0.13188322071E+02 -0.32061569823E+02 -0.25275313561E+02  0.42903584631E+02  0.00000000000E+00 0. -1.
        -14    1    4    4    0    0 -0.17234635113E+03 -0.25031648588E+03  0.20116651674E+02  0.30457558590E+03  0.00000000000E+00 0.  1.
         -5    1    3    3    0  504  0.85895548086E+01 -0.44416899988E+02  0.45399928910E+02  0.64264181325E+02  0.47000000000E+01 0.  1.
<mgrwt>
<rscale>  2 0.40986319E+03</rscale>
<asrwt>0</asrwt>
<pdfrwt beam="1">  1       21 0.96752619E-01 0.40989353E+03</pdfrwt>
<pdfrwt beam="2">  1       21 0.44615882E-01 0.40989353E+03</pdfrwt>
<totfact> 0.37933164E+03</totfact>
</mgrwt>
</event>
<event>
12    1  0.2791583E-001  0.1924251E+03  0.7546771E-02  0.1156845E+00
         21   -1    0    0  502  503  0.00000000000E+00  0.00000000000E+00  0.15073439777E+04  0.15073439777E+04  0.00000000000E+00 0.  1.
         21   -1    0    0  503  504 -0.00000000000E+00 -0.00000000000E+00 -0.46152062358E+02  0.46152062358E+02  0.00000000000E+00 0. -1.
         -6    2    1    2    0  504 -0.51888246731E+02 -0.59610131712E+02  0.19302416965E+03  0.27081258399E+03  0.17272917421E+03 0.  0.
        -24    2    3    3    0    0 -0.65488325566E+02 -0.57633731387E+02  0.21434486332E+03  0.24501471041E+03  0.80486769777E+02 0.  0.
          6    2    1    2  502    0  0.51888246731E+02  0.59610131712E+02  0.12681677457E+04  0.12826834561E+04  0.17544702709E+03 0.  0.
         24    2    5    5    0    0  0.10087291462E+03  0.47297160880E+02  0.80736813791E+03  0.81910015669E+03  0.81666334773E+02 0.  0.
          4    1    6    6  501    0  0.88998630165E+02  0.75119734049E+00  0.47322480952E+03  0.48152158915E+03  0.00000000000E+00 0. -1.
         -3    1    6    6    0  501  0.11874284460E+02  0.46545963539E+02  0.33414332840E+03  0.33757856754E+03  0.00000000000E+00 0.  1.
          5    1    5    5  502    0 -0.48984667893E+02  0.12312970833E+02  0.46079960780E+03  0.46358329941E+03  0.47000000000E+01 0. -1.
         13    1    4    4    0    0 -0.72887148387E+02 -0.16948457413E+02  0.11271607367E+03  0.13529486269E+03  0.00000000000E+00 0. -1.
        -14    1    4    4    0    0  0.73988228210E+01 -0.40685273975E+02  0.10162878965E+03  0.10971984772E+03  0.00000000000E+00 0.  1.
         -5    1    3    3    0  504  0.13600078834E+02 -0.19764003249E+01 -0.21320693666E+02  0.25797873574E+02  0.47000000000E+01 0.  1.
<mgrwt>
<rscale>  2 0.19180340E+03</rscale>
<asrwt>0</asrwt>
<pdfrwt beam="1">  1       21 0.23189904E+00 0.19242510E+03</pdfrwt>
<pdfrwt beam="2">  1       21 0.71003184E-02 0.19242510E+03</pdfrwt>
<totfact> 0.12574559E+04</totfact>
</mgrwt>
</event>
<event>
12    1  0.2791583E-001  0.1883926E+03  0.7546771E-02  0.1160479E+00
         21   -1    0    0  502  503  0.00000000000E+00  0.00000000000E+00  0.41248112669E+03  0.41248112669E+03  0.00000000000E+00 0.  1.
         21   -1    0    0  503  504 -0.00000000000E+00 -0.00000000000E+00 -0.64765129657E+03  0.64765129657E+03  0.00000000000E+00 0.  1.
         -6    2    1    2    0  504  0.31855347960E+02  0.62301162641E+02 -0.61157174343E+03  0.63921683468E+03  0.17228455042E+03 0.  0.
        -24    2    3    3    0    0  0.21456317619E+02  0.92423374552E+02 -0.58362251013E+03  0.59657018036E+03  0.79235673989E+02 0.  0.
          6    2    1    2  502    0 -0.31855347960E+02 -0.62301162641E+02  0.37640157354E+03  0.42091558858E+03  0.17491595150E+03 0.  0.
         24    2    5    5    0    0  0.41017683260E+02 -0.40852806027E+02  0.13594441708E+03  0.16870090865E+03  0.81410748329E+02 0.  0.
          2    1    6    6  501    0  0.11336260821E+02  0.22153450499E+02  0.14774964591E+02  0.28941073876E+02  0.00000000000E+00 0. -1.
         -1    1    6    6    0  501  0.29681422438E+02 -0.63006256526E+02  0.12116945249E+03  0.13975983477E+03  0.00000000000E+00 0.  1.
          5    1    5    5  502    0 -0.72873031220E+02 -0.21448356614E+02  0.24045715646E+03  0.25221467993E+03  0.47000000000E+01 0. -1.
         11    1    4    4    0    0  0.35676955680E+02  0.61992491939E+01 -0.17522053531E+03  0.17892320098E+03  0.00000000000E+00 0. -1.
        -12    1    4    4    0    0 -0.14220638061E+02  0.86224125358E+02 -0.40840197483E+03  0.41764697938E+03  0.00000000000E+00 0.  1.
         -5    1    3    3    0  504  0.10399030341E+02 -0.30122211911E+02 -0.27949233293E+02  0.42646654314E+02  0.47000000000E+01 0.  1.
<mgrwt>
<rscale>  2 0.18777951E+03</rscale>
<asrwt>0</asrwt>
<pdfrwt beam="1">  1       21 0.63458635E-01 0.18839264E+03</pdfrwt>
<pdfrwt beam="2">  1       21 0.99638661E-01 0.18839264E+03</pdfrwt>
<totfact> 0.19088174E+03</totfact>
</mgrwt>
</event>
<event>
12    1  0.2791583E-001  0.1996158E+03  0.7546771E-02  0.1150225E+00
         21   -1    0    0  502  503  0.00000000000E+00  0.00000000000E+00  0.17174061503E+04  0.17174061503E+04  0.00000000000E+00 0. -1.
         21   -1    0    0  503  504 -0.00000000000E+00 -0.00000000000E+00 -0.26789465832E+02  0.26789465832E+02  0.00000000000E+00 0. -1.
         -6    2    1    2    0  504 -0.31141670820E+02  0.92391838188E+02  0.52085312792E+03  0.55752243707E+03  0.17331252566E+03 0.  0.
        -24    2    3    3    0    0 -0.22794327835E+01  0.93489907625E+02  0.19454189927E+03  0.22990170744E+03  0.79137133328E+02 0.  0.
          6    2    1    2  502    0  0.31141670820E+02 -0.92391838188E+02  0.11697635565E+04  0.11866731790E+04  0.17418495987E+03 0.  0.
         24    2    5    5    0    0 -0.59751355088E+01  0.20915618454E+02  0.49498763474E+03  0.50142806109E+03  0.77098486156E+02 0.  0.
          4    1    6    6  501    0 -0.17863714696E+02  0.39323477157E+02  0.44175762704E+03  0.44386399855E+03  0.00000000000E+00 0. -1.
         -3    1    6    6    0  501  0.11888579187E+02 -0.18407858703E+02  0.53230007694E+02  0.57564062541E+02  0.00000000000E+00 0.  1.
          5    1    5    5  502    0  0.37116806329E+02 -0.11330745664E+03  0.67477592179E+03  0.68524511795E+03  0.47000000000E+01 0. -1.
         13    1    4    4    0    0 -0.14047723989E+02  0.20758981078E+02  0.12861579002E+03  0.13103547339E+03  0.00000000000E+00 0. -1.
        -14    1    4    4    0    0  0.11768291206E+02  0.72730926546E+02  0.65926109249E+02  0.98866234048E+02  0.00000000000E+00 0.  1.
         -5    1    3    3    0  504 -0.28862238036E+02 -0.10980694368E+01  0.32631122865E+03  0.32762072963E+03  0.47000000000E+01 0.  1.
<mgrwt>
<rscale>  2 0.19942529E+03</rscale>
<asrwt>0</asrwt>
<pdfrwt beam="1">  1       21 0.26421624E+00 0.19961577E+03</pdfrwt>
<pdfrwt beam="2">  1       21 0.41214576E-02 0.19961577E+03</pdfrwt>
<totfact> 0.20338640E+04</totfact>
</mgrwt>
</event>
<event>
12    1  0.2791583E-001  0.2045580E+03  0.7546771E-02  0.1146109E+00
         21   -1    0    0  502  503  0.00000000000E+00  0.00000000000E+00  0.17370017000E+03  0.17370017000E+03  0.00000000000E+00 0.  1.
         21   -1    0    0  503  504 -0.00000000000E+00 -0.00000000000E+00 -0.61675593241E+03  0.61675593241E+03  0.00000000000E+00 0.  1.
         -6    2    1    2    0  504  0.10336577194E+03  0.31921465096E+02 -0.53060281340E+03  0.56866803655E+03  0.17361027465E+03 0.  0.
        -24    2    3    3    0    0  0.34009080338E+02 -0.38164827790E+02 -0.17435822712E+03  0.19899962517E+03  0.81159644080E+02 0.  0.
          6    2    1    2  502    0 -0.10336577194E+03 -0.31921465096E+02  0.87547050982E+02  0.22178806586E+03  0.17269046667E+03 0.  0.
         24    2    5    5    0    0 -0.46712266414E+02 -0.22547625636E+02  0.12128543885E+03  0.15502087803E+03  0.81430238200E+02 0.  0.
          4    1    6    6  501    0  0.10948836221E+02 -0.13030058767E+01 -0.68021855867E+01  0.12955484076E+02  0.00000000000E+00 0. -1.
         -3    1    6    6    0  501 -0.57661102635E+02 -0.21244619759E+02  0.12808762444E+03  0.14206539396E+03  0.00000000000E+00 0.  1.
          5    1    5    5  502    0 -0.56653505523E+02 -0.93738394601E+01 -0.33738387870E+02  0.66767187827E+02  0.47000000000E+01 0. -1.
         11    1    4    4    0    0  0.22641949936E+02 -0.38292821983E+00 -0.26301430043E+01  0.22797416151E+02  0.00000000000E+00 0. -1.
        -12    1    4    4    0    0  0.11367130401E+02 -0.37781899570E+02 -0.17172808411E+03  0.17620220902E+03  0.00000000000E+00 0.  1.
         -5    1    3    3    0  504  0.69356691600E+02  0.70086292886E+02 -0.35624458628E+03  0.36966841138E+03  0.47000000000E+01 0.  1.
<mgrwt>
<rscale>  2 0.20436274E+03</rscale>
<asrwt>0</asrwt>
<pdfrwt beam="1">  1       21 0.26723103E-01 0.20455804E+03</pdfrwt>
<pdfrwt beam="2">  1       21 0.94885528E-01 0.20455804E+03</pdfrwt>
<totfact> 0.12284914E+04</totfact>
</mgrwt>
</event>
<event>
12    1  0.2791583E-001  0.2247348E+03  0.7546771E-02  0.1130937E+00
         21   -1    0    0  502  503  0.00000000000E+00  0.00000000000E+00  0.34842511924E+03  0.34842511924E+03  0.00000000000E+00 0. -1.
         21   -1    0    0  503  504 -0.00000000000E+00 -0.00000000000E+00 -0.44780404637E+03  0.44780404637E+03  0.00000000000E+00 0.  1.
         -6    2    1    2    0  504  0.14215843582E+03  0.19453928269E+02 -0.37820758307E+03  0.43993945145E+03  0.17296898232E+03 0.  0.
        -24    2    3    3    0    0  0.85592107639E+02 -0.55631072329E+02 -0.22278326201E+03  0.25823552641E+03  0.81439426361E+02 0.  0.
          6    2    1    2  502    0 -0.14215843582E+03 -0.19453928269E+02  0.27882865594E+03  0.35628971417E+03  0.16914332635E+03 0.  0.
         24    2    5    5    0    0 -0.12304116189E+03 -0.18733234751E+02  0.10881132753E+03  0.18513489677E+03  0.83336446992E+02 0.  0.
          2    1    6    6  501    0 -0.98415678569E+02 -0.42643097884E+02  0.10583578882E+03  0.15068275874E+03  0.00000000000E+00 0. -1.
         -1    1    6    6    0  501 -0.24625483322E+02  0.23909863133E+02  0.29755387071E+01  0.34452138025E+02  0.00000000000E+00 0.  1.
          5    1    5    5  502    0 -0.19117273932E+02 -0.72069351815E+00  0.17001732841E+03  0.17115481741E+03  0.47000000000E+01 0. -1.
         11    1    4    4    0    0  0.33284418892E+02  0.14735773005E+02 -0.32810212974E+02  0.49005159141E+02  0.00000000000E+00 0. -1.
        -12    1    4    4    0    0  0.52307688747E+02 -0.70366845334E+02 -0.18997304904E+03  0.20923036727E+03  0.00000000000E+00 0.  1.
         -5    1    3    3    0  504  0.56566328184E+02  0.75085000598E+02 -0.15542432106E+03  0.18170392504E+03  0.47000000000E+01 0.  1.
<mgrwt>
<rscale>  2 0.22399847E+03</rscale>
<asrwt>0</asrwt>
<pdfrwt beam="1">  1       21 0.53603864E-01 0.22473483E+03</pdfrwt>
<pdfrwt beam="2">  1       21 0.68892931E-01 0.22473483E+03</pdfrwt>
<totfact> 0.61758732E+03</totfact>
</mgrwt>
</event>
<event>
12    1  0.2791583E-001  0.2073288E+03  0.7546771E-02  0.1143962E+00
         21   -1    0    0  502  503  0.00000000000E+00  0.00000000000E+00  0.14697029944E+03  0.14697029944E+03  0.00000000000E+00 0. -1.
         21   -1    0    0  503  504 -0.00000000000E+00 -0.00000000000E+00 -0.32171796912E+03  0.32171796912E+03  0.00000000000E+00 0.  1.
         -6    2    1    2    0  504  0.99099259711E+02  0.53037641092E+02 -0.15996206403E+03  0.26083287262E+03  0.17266230296E+03 0.  0.
        -24    2    3    3    0    0  0.11050114911E+03  0.90686582453E+02 -0.13902870311E+03  0.21602504444E+03  0.83085975611E+02 0.  0.
          6    2    1    2  502    0 -0.99099259711E+02 -0.53037641092E+02 -0.14785605656E+02  0.20785539594E+03  0.17421709686E+03 0.  0.
         24    2    5    5    0    0 -0.13923319644E+03 -0.42700251766E+02 -0.99913495158E+01  0.16587123955E+03  0.78767039777E+02 0.  0.
          4    1    6    6  501    0 -0.11467255108E+03 -0.81583831956E+01  0.16124467182E+02  0.11608768939E+03  0.00000000000E+00 0. -1.
         -3    1    6    6    0  501 -0.24560645361E+02 -0.34541868571E+02 -0.26115816698E+02  0.49783550162E+02  0.00000000000E+00 0.  1.
          5    1    5    5  502    0  0.40133936725E+02 -0.10337389326E+02 -0.47942561399E+01  0.41984156382E+02  0.47000000000E+01 0. -1.
         11    1    4    4    0    0 -0.15780280049E+01 -0.27030455701E+01  0.81883742376E+01  0.87661907573E+01  0.00000000000E+00 0. -1.
        -12    1    4    4    0    0  0.11207917711E+03  0.93389628023E+02 -0.14721707735E+03  0.20725885368E+03  0.00000000000E+00 0.  1.
         -5    1    3    3    0  504 -0.11401889398E+02 -0.37648941361E+02 -0.20933360914E+02  0.44807828184E+02  0.47000000000E+01 0.  1.
<mgrwt>
<rscale>  2 0.20700189E+03</rscale>
<asrwt>0</asrwt>
<pdfrwt beam="1">  1       21 0.22610815E-01 0.20732885E+03</pdfrwt>
<pdfrwt beam="2">  1       21 0.49495072E-01 0.20732885E+03</pdfrwt>
<totfact> 0.70876890E+04</totfact>
</mgrwt>
</event>
<event>
12    1  0.2791583E-001  0.1718344E+03  0.7546771E-02  0.1176628E+00
         21   -1    0    0  502  503  0.00000000000E+00  0.00000000000E+00  0.18694216490E+03  0.18694216490E+03  0.00000000000E+00 0. -1.
         21   -1    0    0  503  504 -0.00000000000E+00 -0.00000000000E+00 -0.32271854347E+03  0.32271854347E+03  0.00000000000E+00 0. -1.
         -6    2    1    2    0  504 -0.73114852165E+00  0.88466021417E+01 -0.25154624344E+03  0.30463515317E+03  0.17160497374E+03 0.  0.
        -24    2    3    3    0    0  0.49856746981E+02  0.80615312413E+01 -0.23134591976E+03  0.24995522464E+03  0.80037467647E+02 0.  0.
          6    2    1    2  502    0  0.73114852165E+00 -0.88466021417E+01  0.11576986486E+03  0.20502555519E+03  0.16897934704E+03 0.  0.
         24    2    5    5    0    0 -0.49741793352E+02  0.19830439820E+01  0.12011196076E+03  0.15300879930E+03  0.80663691192E+02 0.  0.
          2    1    6    6  501    0 -0.49994173232E+02  0.18863144636E+02  0.12457116261E+03  0.13554781495E+03  0.00000000000E+00 0. -1.
         -1    1    6    6    0  501  0.25237987960E+00 -0.16880100654E+02 -0.44592018450E+01  0.17460984359E+02  0.00000000000E+00 0.  1.
          5    1    5    5  502    0  0.50472941874E+02 -0.10829646124E+02 -0.43420959025E+01  0.52016755891E+02  0.47000000000E+01 0. -1.
         11    1    4    4    0    0  0.57857244542E+01 -0.32413981478E+02 -0.10717139289E+03  0.11211533462E+03  0.00000000000E+00 0. -1.
        -12    1    4    4    0    0  0.44071022527E+02  0.40475512719E+02 -0.12417452688E+03  0.13783989002E+03  0.00000000000E+00 0.  1.
         -5    1    3    3    0  504 -0.50587895503E+02  0.78507090043E+00 -0.20200323672E+02  0.54679928531E+02  0.47000000000E+01 0.  1.
<mgrwt>
<rscale>  2 0.17117511E+03</rscale>
<asrwt>0</asrwt>
<pdfrwt beam="1">  1       21 0.28760333E-01 0.17183441E+03</pdfrwt>
<pdfrwt beam="2">  1       21 0.49649006E-01 0.17183441E+03</pdfrwt>
<totfact> 0.45190982E+04</totfact>
</mgrwt>
</event>
<event>
12    1  0.2791583E-001  0.1878049E+03  0.7546771E-02  0.1160645E+00
         21   -1    0    0  502  503  0.00000000000E+00  0.00000000000E+00  0.19218939497E+03  0.19218939497E+03  0.00000000000E+00 0. -1.
         21   -1    0    0  503  504 -0.00000000000E+00 -0.00000000000E+00 -0.18818440864E+03  0.18818440864E+03  0.00000000000E+00 0.  1.
         -6    2    1    2    0  504  0.21066631732E+02 -0.72989371101E+02 -0.30415363044E+02  0.18944075633E+03  0.17085506894E+03 0.  0.
        -24    2    3    3    0    0 -0.53738018505E+02 -0.32583927371E+02 -0.45516807090E+01  0.10044999476E+03  0.78230407739E+02 0.  0.
          6    2    1    2  502    0 -0.21066631732E+02  0.72989371101E+02  0.34420349377E+02  0.19093304729E+03  0.17175394269E+03 0.  0.
         24    2    5    5    0    0 -0.35003330972E+02  0.38136608060E+02  0.84807079787E+02  0.12792622798E+03  0.80580673676E+02 0.  0.
          2    1    6    6  501    0 -0.52802898030E+02  0.12310150590E+02  0.79326001244E+02  0.96084860000E+02  0.00000000000E+00 0. -1.
         -1    1    6    6    0  501  0.17799567059E+02  0.25826457470E+02  0.54810785438E+01  0.31841367981E+02  0.00000000000E+00 0.  1.
          5    1    5    5  502    0  0.13936699239E+02  0.34852763042E+02 -0.50386730411E+02  0.63006819304E+02  0.47000000000E+01 0. -1.
         13    1    4    4    0    0  0.20361890575E+02 -0.11076893880E+02 -0.16202369234E+01  0.23236379527E+02  0.00000000000E+00 0. -1.
        -14    1    4    4    0    0 -0.74099909081E+02 -0.21507033491E+02 -0.29314437856E+01  0.77213615237E+02  0.00000000000E+00 0.  1.
         -5    1    3    3    0  504  0.74804650237E+02 -0.40405443730E+02 -0.25863682335E+02  0.88990761566E+02  0.47000000000E+01 0.  1.
<mgrwt>
<rscale>  2 0.18759910E+03</rscale>
<asrwt>0</asrwt>
<pdfrwt beam="1">  1       21 0.29567599E-01 0.18780487E+03</pdfrwt>
<pdfrwt beam="2">  1       21 0.28951447E-01 0.18780487E+03</pdfrwt>
<totfact> 0.12539028E+05</totfact>
</mgrwt>
</event>
<event>
12    1  0.2791583E-001  0.1909979E+03  0.7546771E-02  0.1158035E+00
         21   -1    0    0  502  503  0.00000000000E+00  0.00000000000E+00  0.29996106960E+02  0.29996106960E+02  0.00000000000E+00 0. -1.
         21   -1    0    0  503  504 -0.00000000000E+00 -0.00000000000E+00 -0.13149811664E+04  0.13149811664E+04  0.00000000000E+00 0. -1.
         -6    2    1    2    0  504  0.65849794078E+02  0.40922241793E+02 -0.83559041680E+03  0.85667843498E+03  0.17226656977E+03 0.  0.
        -24    2    3    3    0    0 -0.25034790194E+02 -0.10450978105E+01 -0.21212103513E+03  0.22520600872E+03  0.71376325687E+02 0.  0.
          6    2    1    2  502    0 -0.65849794078E+02 -0.40922241793E+02 -0.44939464267E+03  0.48829883841E+03  0.17455482084E+03 0.  0.
         24    2    5    5    0    0 -0.88754494350E+02 -0.54818516747E+02 -0.43983393372E+03  0.45946779771E+03  0.82306365689E+02 0.  0.
          2    1    6    6  501    0 -0.31680491948E+02 -0.57075159796E+02 -0.14309151317E+03  0.15727812492E+03  0.00000000000E+00 0. -1.
         -1    1    6    6    0  501 -0.57074002402E+02  0.22566430488E+01 -0.29674242055E+03  0.30218967279E+03  0.00000000000E+00 0.  1.
          5    1    5    5  502    0  0.22904700272E+02  0.13896274954E+02 -0.95607089459E+01  0.28831040697E+02  0.47000000000E+01 0. -1.
         11    1    4    4    0    0 -0.63228236664E+01  0.21078849491E+02 -0.18230894316E+03  0.18363236847E+03  0.00000000000E+00 0. -1.
        -12    1    4    4    0    0 -0.18711966528E+02 -0.22123947302E+02 -0.29812091969E+02  0.41573640244E+02  0.00000000000E+00 0.  1.
         -5    1    3    3    0  504  0.90884584272E+02  0.41967339604E+02 -0.62346938167E+03  0.63147242626E+03  0.47000000000E+01 0.  1.
<mgrwt>
<rscale>  2 0.19047354E+03</rscale>
<asrwt>0</asrwt>
<pdfrwt beam="1">  1       21 0.46147870E-02 0.19099793E+03</pdfrwt>
<pdfrwt beam="2">  1       21 0.20230474E+00 0.19099793E+03</pdfrwt>
<totfact> 0.40028688E+04</totfact>
</mgrwt>
</event>
<event>
12    1  0.2791583E-001  0.1915631E+03  0.7546771E-02  0.1157570E+00
         21   -1    0    0  502  503  0.00000000000E+00  0.00000000000E+00  0.73537800312E+02  0.73537800312E+02  0.00000000000E+00 0. -1.
         21   -1    0    0  503  504 -0.00000000000E+00 -0.00000000000E+00 -0.49401714488E+03  0.49401714488E+03  0.00000000000E+00 0. -1.
         -6    2    1    2    0  504 -0.49068892100E+02  0.61881255406E+02 -0.22367646634E+03  0.29449546431E+03  0.17452613261E+03 0.  0.
        -24    2    3    3    0    0 -0.86956654484E+02  0.10508673532E+02 -0.10023432027E+03  0.15544627110E+03  0.80279089805E+02 0.  0.
          6    2    1    2  502    0  0.49068892100E+02 -0.61881255406E+02 -0.19680287823E+03  0.27305948088E+03  0.17202633890E+03 0.  0.
         24    2    5    5    0    0  0.70922659879E+00 -0.33742100827E+02 -0.19869353508E+03  0.21688000196E+03  0.80117301501E+02 0.  0.
          4    1    6    6  501    0  0.29942412086E+02  0.64992473986E+01 -0.38860569398E+02  0.49486686212E+02  0.00000000000E+00 0. -1.
         -3    1    6    6    0  501 -0.29233185487E+02 -0.40241348225E+02 -0.15983296568E+03  0.16739331575E+03  0.00000000000E+00 0.  1.
          5    1    5    5  502    0  0.48359665501E+02 -0.28139154580E+02  0.18906568500E+01  0.56179478915E+02  0.47000000000E+01 0. -1.
         13    1    4    4    0    0 -0.44217242622E+02 -0.29504668748E+02 -0.74434701715E+02  0.91467015051E+02  0.00000000000E+00 0. -1.
        -14    1    4    4    0    0 -0.42739411862E+02  0.40013342280E+02 -0.25799618557E+02  0.63979256048E+02  0.00000000000E+00 0.  1.
         -5    1    3    3    0  504  0.37887762384E+02  0.51372581874E+02 -0.12344214607E+03  0.13904919321E+03  0.47000000000E+01 0.  1.
<mgrwt>
<rscale>  2 0.19099187E+03</rscale>
<asrwt>0</asrwt>
<pdfrwt beam="1">  1       21 0.11313508E-01 0.19156309E+03</pdfrwt>
<pdfrwt beam="2">  1       21 0.76002637E-01 0.19156309E+03</pdfrwt>
<totfact> 0.10066203E+05</totfact>
</mgrwt>
</event>
<event>
12    1  0.2791583E-001  0.3560059E+03  0.7546771E-02  0.1060208E+00
         21   -1    0    0  502  503  0.00000000000E+00  0.00000000000E+00  0.67698840156E+03  0.67698840156E+03  0.00000000000E+00 0. -1.
         21   -1    0    0  503  504 -0.00000000000E+00 -0.00000000000E+00 -0.47128338374E+03  0.47128338374E+03  0.00000000000E+00 0.  1.
         -6    2    1    2    0  504 -0.28124278046E+03  0.13266254901E+03 -0.34303976159E+03  0.49416091905E+03  0.17269013410E+03 0.  0.
        -24    2    3    3    0    0 -0.57683104678E+02  0.16570066000E+02 -0.13267531165E+03  0.16593586662E+03  0.79561710988E+02 0.  0.
          6    2    1    2  502    0  0.28124278046E+03 -0.13266254901E+03  0.54874477941E+03  0.65411086626E+03  0.17333014440E+03 0.  0.
         24    2    5    5    0    0  0.22957922130E+03 -0.45825799510E+02  0.32206159898E+03  0.40588294942E+03  0.78807819016E+02 0.  0.
          4    1    6    6  501    0  0.14184623216E+03 -0.39804502896E+02  0.25794049844E+03  0.29704890635E+03  0.00000000000E+00 0. -1.
         -3    1    6    6    0  501  0.87732989137E+02 -0.60212966140E+01  0.64121100541E+02  0.10883404307E+03  0.00000000000E+00 0.  1.
          5    1    5    5  502    0  0.51663559157E+02 -0.86836749503E+02  0.22668318042E+03  0.24822791684E+03  0.47000000000E+01 0. -1.
         11    1    4    4    0    0 -0.46690216245E+02  0.16578388967E+01 -0.18470667390E+02  0.50238334732E+02  0.00000000000E+00 0. -1.
        -12    1    4    4    0    0 -0.10992888434E+02  0.14912227103E+02 -0.11420464426E+03  0.11569753189E+03  0.00000000000E+00 0.  1.
         -5    1    3    3    0  504 -0.22355967578E+03  0.11609248301E+03 -0.21036444993E+03  0.32822505243E+03  0.47000000000E+01 0.  1.
<mgrwt>
<rscale>  2 0.35592807E+03</rscale>
<asrwt>0</asrwt>
<pdfrwt beam="1">  1       21 0.10415206E+00 0.35600589E+03</pdfrwt>
<pdfrwt beam="2">  1       21 0.72505136E-01 0.35600589E+03</pdfrwt>
<totfact> 0.11356916E+03</totfact>
</mgrwt>
</event>
<event>
12    1  0.2791583E-001  0.1752559E+03  0.7546771E-02  0.1172517E+00
         21   -1    0    0  502  503  0.00000000000E+00  0.00000000000E+00  0.71021643233E+03  0.71021643233E+03  0.00000000000E+00 0.  1.
         21   -1    0    0  503  504 -0.00000000000E+00 -0.00000000000E+00 -0.55199633778E+02  0.55199633778E+02  0.00000000000E+00 0.  1.
         -6    2    1    2    0  504 -0.15768660622E+02  0.32085496297E+02  0.14898766372E+03  0.22989751714E+03  0.17139840932E+03 0.  0.
        -24    2    3    3    0    0  0.40507983181E+02  0.28216182573E+02  0.32405085597E+02  0.10029960146E+03  0.81073243555E+02 0.  0.
          6    2    1    2  502    0  0.15768660622E+02 -0.32085496297E+02  0.50602913483E+03  0.53551854896E+03  0.17157068881E+03 0.  0.
         24    2    5    5    0    0  0.85505172436E+01 -0.86651113638E+02  0.31564670941E+03  0.33728367288E+03  0.80906761076E+02 0.  0.
          2    1    6    6  501    0 -0.20087091890E+02 -0.26434984995E+02  0.32751490235E+02  0.46636464327E+02  0.00000000000E+00 0. -1.
         -1    1    6    6    0  501  0.28637609134E+02 -0.60216128643E+02  0.28289521918E+03  0.29064720855E+03  0.00000000000E+00 0.  1.
          5    1    5    5  502    0  0.72181433784E+01  0.54565617340E+02  0.19038242541E+03  0.19823487608E+03  0.47000000000E+01 0. -1.
         11    1    4    4    0    0 -0.23389660942E+02  0.63404863111E+01  0.20453850895E+02  0.31711796261E+02  0.00000000000E+00 0. -1.
        -12    1    4    4    0    0  0.63897644123E+02  0.21875696262E+02  0.11951234702E+02  0.68587805201E+02  0.00000000000E+00 0.  1.
         -5    1    3    3    0  504 -0.56276643803E+02  0.38693137239E+01  0.11658257813E+03  0.12959791568E+03  0.47000000000E+01 0.  1.
<mgrwt>
<rscale>  2 0.17521372E+03</rscale>
<asrwt>0</asrwt>
<pdfrwt beam="1">  1       21 0.10926406E+00 0.17525590E+03</pdfrwt>
<pdfrwt beam="2">  1       21 0.84922518E-02 0.17525590E+03</pdfrwt>
<totfact> 0.72363234E+04</totfact>
</mgrwt>
</event>
<event>
12    1  0.2791583E-001  0.1944127E+03  0.7546771E-02  0.1155201E+00
         21   -1    0    0  502  503  0.00000000000E+00  0.00000000000E+00  0.43287198579E+03  0.43287198579E+03  0.00000000000E+00 0.  1.
         21   -1    0    0  503  504 -0.00000000000E+00 -0.00000000000E+00 -0.92949017683E+02  0.92949017683E+02  0.00000000000E+00 0.  1.
         -6    2    1    2    0  504 -0.75433761258E+02 -0.32717138799E+02  0.96728841360E+02  0.21446962097E+03  0.17285857242E+03 0.  0.
        -24    2    3    3    0    0 -0.36780170792E+02  0.42467273998E+02  0.51583765486E+02  0.11851669574E+03  0.90714232531E+02 0.  0.
          6    2    1    2  502    0  0.75433761258E+02  0.32717138799E+02  0.24319412675E+03  0.31135138250E+03  0.17616934068E+03 0.  0.
         24    2    5    5    0    0  0.77983502356E+02  0.68663010278E+02  0.24153763767E+03  0.27497225645E+03  0.80456670259E+02 0.  0.
          2    1    6    6  501    0  0.11874640182E+02  0.49313298844E+02  0.16199071006E+03  0.16974627733E+03  0.00000000000E+00 0. -1.
         -1    1    6    6    0  501  0.66108862173E+02  0.19349711434E+02  0.79546927610E+02  0.10522597912E+03  0.00000000000E+00 0.  1.
          5    1    5    5  502    0 -0.25497410975E+01 -0.35945871479E+02  0.16564890779E+01  0.36379126050E+02  0.47000000000E+01 0. -1.
         11    1    4    4    0    0 -0.39158983657E+01  0.38897615481E+02  0.70365406625E+02  0.80496268234E+02  0.00000000000E+00 0. -1.
        -12    1    4    4    0    0 -0.32864272427E+02  0.35696585171E+01 -0.18781641139E+02  0.38020427509E+02  0.00000000000E+00 0.  1.
         -5    1    3    3    0  504 -0.38653590466E+02 -0.75184412797E+02  0.45145075875E+02  0.95952925226E+02  0.47000000000E+01 0.  1.
<mgrwt>
<rscale>  2 0.19365960E+03</rscale>
<asrwt>0</asrwt>
<pdfrwt beam="1">  1       21 0.66595689E-01 0.19441271E+03</pdfrwt>
<pdfrwt beam="2">  1       21 0.14299849E-01 0.19441271E+03</pdfrwt>
<totfact> 0.88391588E+04</totfact>
</mgrwt>
</event>
<event>
12    1  0.2791583E-001  0.2629764E+03  0.7546771E-02  0.1105740E+00
         21   -1    0    0  502  503  0.00000000000E+00  0.00000000000E+00  0.87278243736E+02  0.87278243736E+02  0.00000000000E+00 0. -1.
         21   -1    0    0  503  504 -0.00000000000E+00 -0.00000000000E+00 -0.82513137138E+03  0.82513137138E+03  0.00000000000E+00 0. -1.
         -6    2    1    2    0  504 -0.59816789453E+02  0.18479238625E+03 -0.26981713028E+03  0.37677300221E+03  0.17728603185E+03 0.  0.
        -24    2    3    3    0    0  0.27720192795E+01  0.13060959398E+03 -0.74034723908E+02  0.16415603534E+03  0.66328828315E+02 0.  0.
          6    2    1    2  502    0  0.59816789453E+02 -0.18479238625E+03 -0.46803599736E+03  0.53563661290E+03  0.17355867001E+03 0.  0.
         24    2    5    5    0    0  0.92703508050E+02 -0.77570218027E+02 -0.30319389545E+03  0.33620457390E+03  0.80597134821E+02 0.  0.
          2    1    6    6  501    0  0.10124464025E+03 -0.67041952926E+02 -0.21454621838E+03  0.24652622671E+03  0.00000000000E+00 0. -1.
         -1    1    6    6    0  501 -0.85411322012E+01 -0.10528265100E+02 -0.88647677069E+02  0.89678347192E+02  0.00000000000E+00 0.  1.
          5    1    5    5  502    0 -0.32886718597E+02 -0.10722216822E+03 -0.16484210191E+03  0.19943203900E+03  0.47000000000E+01 0. -1.
         11    1    4    4    0    0 -0.18168800477E+02  0.64632194406E+02 -0.66549138081E+02  0.94531548404E+02  0.00000000000E+00 0. -1.
        -12    1    4    4    0    0  0.20940819756E+02  0.65977399573E+02 -0.74855858277E+01  0.69624486940E+02  0.00000000000E+00 0.  1.
         -5    1    3    3    0  504 -0.62588808733E+02  0.54182792268E+02 -0.19578240637E+03  0.21261696687E+03  0.47000000000E+01 0.  1.
<mgrwt>
<rscale>  2 0.26234964E+03</rscale>
<asrwt>0</asrwt>
<pdfrwt beam="1">  1       21 0.13427421E-01 0.26297645E+03</pdfrwt>
<pdfrwt beam="2">  1       21 0.12694329E+00 0.26297645E+03</pdfrwt>
<totfact> 0.21150243E+04</totfact>
</mgrwt>
</event>
<event>
12    1  0.2791583E-001  0.2473290E+03  0.7546771E-02  0.1115276E+00
         21   -1    0    0  502  503  0.00000000000E+00  0.00000000000E+00  0.59060917645E+02  0.59060917645E+02  0.00000000000E+00 0.  1.
         21   -1    0    0  503  504 -0.00000000000E+00 -0.00000000000E+00 -0.12876518216E+04  0.12876518216E+04  0.00000000000E+00 0. -1.
         -6    2    1    2    0  504  0.14676195715E+03 -0.98342906012E+02 -0.91794874862E+03  0.95068478110E+03  0.17309317924E+03 0.  0.
        -24    2    3    3    0    0  0.80272914458E+02 -0.13022947049E+03 -0.64036018533E+03  0.66343045779E+03  0.81702812606E+02 0.  0.
          6    2    1    2  502    0 -0.14676195715E+03  0.98342906012E+02 -0.31064215533E+03  0.39602795814E+03  0.17067277383E+03 0.  0.
         24    2    5    5    0    0 -0.14438263356E+03  0.65373032741E+02 -0.31556887138E+03  0.36227834695E+03  0.80882073427E+02 0.  0.
          4    1    6    6  501    0 -0.76156140839E+02  0.41258101725E+02 -0.25017793035E+03  0.26474702185E+03  0.00000000000E+00 0. -1.
         -3    1    6    6    0  501 -0.68226492722E+02  0.24114931016E+02 -0.65390941036E+02  0.97531325104E+02  0.00000000000E+00 0.  1.
          5    1    5    5  502    0 -0.23793235935E+01  0.32969873271E+02  0.49267160480E+01  0.33749611188E+02  0.47000000000E+01 0. -1.
         11    1    4    4    0    0  0.10945670927E+02 -0.54824767866E+02 -0.11137423481E+03  0.12461855024E+03  0.00000000000E+00 0. -1.
        -12    1    4    4    0    0  0.69327243532E+02 -0.75404702626E+02 -0.52898595052E+03  0.53881190755E+03  0.00000000000E+00 0.  1.
         -5    1    3    3    0  504  0.66489042696E+02  0.31886564480E+02 -0.27758856329E+03  0.28725432331E+03  0.47000000000E+01 0.  1.
<mgrwt>
<rscale>  2 0.24690598E+03</rscale>
<asrwt>0</asrwt>
<pdfrwt beam="1">  1       21 0.90862954E-02 0.24732903E+03</pdfrwt>
<pdfrwt beam="2">  1       21 0.19810027E+00 0.24732903E+03</pdfrwt>
<totfact> 0.12745075E+04</totfact>
</mgrwt>
</event>
<event>
12    1  0.2791583E-001  0.2348189E+03  0.7546771E-02  0.1123302E+00
         21   -1    0    0  502  503  0.00000000000E+00  0.00000000000E+00  0.31363760155E+03  0.31363760155E+03  0.00000000000E+00 0.  1.
         21   -1    0    0  503  504 -0.00000000000E+00 -0.00000000000E+00 -0.21315244417E+03  0.21315244417E+03  0.00000000000E+00 0. -1.
         -6    2    1    2    0  504 -0.14445850970E+02  0.15717792120E+03 -0.60070602521E+02  0.24232903598E+03  0.17378522052E+03 0.  0.
        -24    2    3    3    0    0 -0.20449539668E+02  0.16746501391E+03 -0.91693216782E+02  0.20821234964E+03  0.80511005356E+02 0.  0.
          6    2    1    2  502    0  0.14445850970E+02 -0.15717792120E+03  0.16055575990E+03  0.28446100974E+03  0.17385721872E+03 0.  0.
         24    2    5    5    0    0  0.70191237735E+02 -0.13363403790E+03  0.98079823193E+02  0.19735650208E+03  0.80901614680E+02 0.  0.
          2    1    6    6  501    0  0.47915568617E+02 -0.11041346325E+03  0.33075436948E+02  0.12482395248E+03  0.00000000000E+00 0. -1.
         -1    1    6    6    0  501  0.22275669118E+02 -0.23220574650E+02  0.65004386245E+02  0.72532549609E+02  0.00000000000E+00 0.  1.
          5    1    5    5  502    0 -0.55745386764E+02 -0.23543883302E+02  0.62475936707E+02  0.87104507655E+02  0.47000000000E+01 0. -1.
         13    1    4    4    0    0 -0.20383258136E+02  0.14690540923E+03 -0.41557831637E+02  0.15402509485E+03  0.00000000000E+00 0. -1.
        -14    1    4    4    0    0 -0.66281532552E-01  0.20559604672E+02 -0.50135385146E+02  0.54187254786E+02  0.00000000000E+00 0.  1.
         -5    1    3    3    0  504  0.60036886980E+01 -0.10287092707E+02  0.31622614261E+02  0.34116686343E+02  0.47000000000E+01 0.  1.
<mgrwt>
<rscale>  2 0.23480557E+03</rscale>
<asrwt>0</asrwt>
<pdfrwt beam="1">  1       21 0.48251939E-01 0.23481890E+03</pdfrwt>
<pdfrwt beam="2">  1       21 0.32792684E-01 0.23481890E+03</pdfrwt>
<totfact> 0.35965910E+04</totfact>
</mgrwt>
</event>
<event>
12    1  0.2791583E-001  0.2250145E+03  0.7546771E-02  0.1130320E+00
         21   -1    0    0  502  503  0.00000000000E+00  0.00000000000E+00  0.15238257179E+03  0.15238257179E+03  0.00000000000E+00 0. -1.
         21   -1    0    0  503  504 -0.00000000000E+00 -0.00000000000E+00 -0.62112165384E+03  0.62112165384E+03  0.00000000000E+00 0. -1.
         -6    2    1    2    0  504  0.14166684238E+03  0.21096067011E+02 -0.49837917261E+03  0.54654593797E+03  0.17267346162E+03 0.  0.
        -24    2    3    3    0    0  0.92443390638E+02  0.19059845975E+02 -0.47639977326E+03  0.49239542188E+03  0.81163103198E+02 0.  0.
          6    2    1    2  502    0 -0.14166684238E+03 -0.21096067011E+02  0.29640090558E+02  0.22695828767E+03  0.17354247636E+03 0.  0.
         24    2    5    5    0    0 -0.27648776301E+02  0.31206623916E+02  0.12545032855E+02  0.10026960677E+03  0.90323352381E+02 0.  0.
          4    1    6    6  501    0 -0.43189667254E+02  0.42172213665E+02 -0.19129790299E+02  0.63322917177E+02  0.00000000000E+00 0. -1.
         -3    1    6    6    0  501  0.15540890953E+02 -0.10965589749E+02  0.31674823154E+02  0.36946689594E+02  0.00000000000E+00 0.  1.
          5    1    5    5  502    0 -0.11401806608E+03 -0.52302690927E+02  0.17095057703E+02  0.12668868090E+03  0.47000000000E+01 0. -1.
         11    1    4    4    0    0  0.78956010783E+02 -0.56857232530E+01 -0.20857097747E+03  0.22308794618E+03  0.00000000000E+00 0. -1.
        -12    1    4    4    0    0  0.13487379855E+02  0.24745569228E+02 -0.26782879579E+03  0.26930747570E+03  0.00000000000E+00 0.  1.
         -5    1    3    3    0  504  0.49223451740E+02  0.20362210366E+01 -0.21979399348E+02  0.54150516092E+02  0.47000000000E+01 0.  1.
<mgrwt>
<rscale>  2 0.22484694E+03</rscale>
<asrwt>0</asrwt>
<pdfrwt beam="1">  1       21 0.23443472E-01 0.22501451E+03</pdfrwt>
<pdfrwt beam="2">  1       21 0.95557178E-01 0.22501451E+03</pdfrwt>
<totfact> 0.15328729E+04</totfact>
</mgrwt>
</event>
<event>
12    1  0.2791583E-001  0.2250689E+03  0.7546771E-02  0.1130267E+00
         21   -1    0    0  502  503  0.00000000000E+00  0.00000000000E+00  0.69580482881E+02  0.69580482881E+02  0.00000000000E+00 0.  1.
         21   -1    0    0  503  504 -0.00000000000E+00 -0.00000000000E+00 -0.79414935986E+03  0.79414935986E+03  0.00000000000E+00 0. -1.
         -6    2    1    2    0  504 -0.14211625113E+03  0.18724224257E+02 -0.23631013812E+03  0.32634106183E+03  0.17351767012E+03 0.  0.
        -24    2    3    3    0    0 -0.14130512962E+02  0.32498577627E+02 -0.15031928839E+03  0.17146498807E+03  0.74488420076E+02 0.  0.
          6    2    1    2  502    0  0.14211625113E+03 -0.18724224257E+02 -0.48825873885E+03  0.53738878091E+03  0.17274976229E+03 0.  0.
         24    2    5    5    0    0  0.16774431197E+03 -0.14752228474E+01 -0.36211221296E+03  0.40742970448E+03  0.82057168091E+02 0.  0.
          4    1    6    6  501    0  0.15584425756E+03  0.19074444526E+02 -0.34197147194E+03  0.37629211349E+03  0.00000000000E+00 0. -1.
         -3    1    6    6    0  501  0.11900054413E+02 -0.20549667374E+02 -0.20140741020E+02  0.31137590996E+02  0.00000000000E+00 0.  1.
          5    1    5    5  502    0 -0.25628060840E+02 -0.17249001409E+02 -0.12614652589E+03  0.12995907643E+03  0.47000000000E+01 0. -1.
         13    1    4    4    0    0 -0.21890800242E+02  0.12544135546E+02 -0.14776424580E+03  0.14990275117E+03  0.00000000000E+00 0. -1.
        -14    1    4    4    0    0  0.77602872799E+01  0.19954442081E+02 -0.25550425963E+01  0.21562236899E+02  0.00000000000E+00 0.  1.
         -5    1    3    3    0  504 -0.12798573817E+03 -0.13774353370E+02 -0.85990849730E+02  0.15487607376E+03  0.47000000000E+01 0.  1.
<mgrwt>
<rscale>  2 0.22492088E+03</rscale>
<asrwt>0</asrwt>
<pdfrwt beam="1">  1       21 0.10704690E-01 0.22506889E+03</pdfrwt>
<pdfrwt beam="2">  1       21 0.12217682E+00 0.22506889E+03</pdfrwt>
<totfact> 0.35682894E+04</totfact>
</mgrwt>
</event>
<event>
12    1  0.2791583E-001  0.2396769E+03  0.7546771E-02  0.1121422E+00
         21   -1    0    0  502  503  0.00000000000E+00  0.00000000000E+00  0.60391519166E+02  0.60391519166E+02  0.00000000000E+00 0. -1.
         21   -1    0    0  503  504 -0.00000000000E+00 -0.00000000000E+00 -0.12185439774E+04  0.12185439774E+04  0.00000000000E+00 0.  1.
         -6    2    1    2    0  504  0.47001954931E+01 -0.16415184957E+03 -0.88865015906E+03  0.91827430357E+03  0.16297444535E+03 0.  0.
        -24    2    3    3    0    0  0.61699112393E+01 -0.15815578907E+03 -0.52724867681E+03  0.55678954015E+03  0.83499122186E+02 0.  0.
          6    2    1    2  502    0 -0.47001954931E+01  0.16415184957E+03 -0.26950229914E+03  0.36066119296E+03  0.17457687509E+03 0.  0.
         24    2    5    5    0    0 -0.57818855781E+02  0.15300849131E+03 -0.23118362392E+03  0.29405655818E+03  0.79175583003E+02 0.  0.
          4    1    6    6  501    0 -0.66911513796E+02  0.11513984046E+03 -0.13202040770E+03  0.18751992318E+03  0.00000000000E+00 0. -1.
         -3    1    6    6    0  501  0.90926580147E+01  0.37868650857E+02 -0.99163216218E+02  0.10653663501E+03  0.00000000000E+00 0.  1.
          5    1    5    5  502    0  0.53118660288E+02  0.11143358254E+02 -0.38318675221E+02  0.66604634784E+02  0.47000000000E+01 0. -1.
         13    1    4    4    0    0  0.31300248889E+02 -0.14076652822E+03 -0.47336819005E+03  0.49484579861E+03  0.00000000000E+00 0. -1.
        -14    1    4    4    0    0 -0.25130337650E+02 -0.17389260852E+02 -0.53880486756E+02  0.61943741544E+02  0.00000000000E+00 0.  1.
         -5    1    3    3    0  504 -0.14697157463E+01 -0.59960604940E+01 -0.36140148225E+03  0.36148476341E+03  0.47000000000E+01 0.  1.
<mgrwt>
<rscale>  2 0.23757068E+03</rscale>
<asrwt>0</asrwt>
<pdfrwt beam="1">  1       21 0.92910032E-02 0.23967688E+03</pdfrwt>
<pdfrwt beam="2">  1       21 0.18746830E+00 0.23967688E+03</pdfrwt>
<totfact> 0.14478479E+04</totfact>
</mgrwt>
</event>
<event>
12    1  0.2791583E-001  0.1986054E+03  0.7546771E-02  0.1151062E+00
         21   -1    0    0  502  503  0.00000000000E+00  0.00000000000E+00  0.16229413680E+04  0.16229413680E+04  0.00000000000E+00 0.  1.
         21   -1    0    0  503  504 -0.00000000000E+00 -0.00000000000E+00 -0.24460553102E+02  0.24460553102E+02  0.00000000000E+00 0.  1.
         -6    2    1    2    0  504 -0.83481275225E+02 -0.46679875680E+02  0.71938834703E+03  0.74629999510E+03  0.17405733179E+03 0.  0.
        -24    2    3    3    0    0  0.52682553555E+01 -0.24502853001E+02  0.79803754427E+02  0.10018944682E+03  0.55146547617E+02 0.  0.
          6    2    1    2  502    0  0.83481275225E+02  0.46679875680E+02  0.87909246788E+03  0.90110192600E+03  0.17330025926E+03 0.  0.
         24    2    5    5    0    0  0.10175026382E+03 -0.98966838069E+01  0.45307249883E+03  0.47092781352E+03  0.77764103593E+02 0.  0.
          4    1    6    6  501    0  0.77786534820E+02 -0.28071198253E+02  0.20519414577E+03  0.22123149556E+03  0.00000000000E+00 0. -1.
         -3    1    6    6    0  501  0.23963729002E+02  0.18174514446E+02  0.24787835306E+03  0.24969631795E+03  0.00000000000E+00 0.  1.
          5    1    5    5  502    0 -0.18268988597E+02  0.56576559487E+02  0.42601996905E+03  0.43017411249E+03  0.47000000000E+01 0. -1.
         13    1    4    4    0    0 -0.97413437235E+01 -0.41259185091E+01 -0.49918174700E+01  0.11697658857E+02  0.00000000000E+00 0. -1.
        -14    1    4    4    0    0  0.15009599079E+02 -0.20376934492E+02  0.84795571897E+02  0.88491787965E+02  0.00000000000E+00 0.  1.
         -5    1    3    3    0  504 -0.88749530581E+02 -0.22177022679E+02  0.63958459260E+03  0.64611054828E+03  0.47000000000E+01 0.  1.
<mgrwt>
<rscale>  2 0.19843936E+03</rscale>
<asrwt>0</asrwt>
<pdfrwt beam="1">  1       21 0.24968320E+00 0.19860536E+03</pdfrwt>
<pdfrwt beam="2">  1       21 0.37631633E-02 0.19860536E+03</pdfrwt>
<totfact> 0.28840229E+04</totfact>
</mgrwt>
</event>
<event>
12    1  0.2791583E-001  0.3625265E+03  0.7546771E-02  0.1057753E+00
         21   -1    0    0  502  503  0.00000000000E+00  0.00000000000E+00  0.12464572087E+04  0.12464572087E+04  0.00000000000E+00 0.  1.
         21   -1    0    0  503  504 -0.00000000000E+00 -0.00000000000E+00 -0.10709870482E+03  0.10709870482E+03  0.00000000000E+00 0.  1.
         -6    2    1    2    0  504  0.24944459577E+03 -0.19814937729E+03  0.66679991929E+03  0.75897800947E+03  0.17303093485E+03 0.  0.
        -24    2    3    3    0    0  0.18822355721E+03 -0.21014142220E+03  0.59680450701E+03  0.66509897857E+03  0.81200411887E+02 0.  0.
          6    2    1    2  502    0 -0.24944459577E+03  0.19814937729E+03  0.47255858463E+03  0.59457790409E+03  0.16948594646E+03 0.  0.
         24    2    5    5    0    0 -0.10795165383E+03  0.11722076186E+03  0.34263832359E+03  0.38608076349E+03  0.79139551190E+02 0.  0.
          2    1    6    6  501    0 -0.70560576647E+02  0.11977851622E+03  0.24824640486E+03  0.28452058880E+03  0.00000000000E+00 0. -1.
         -1    1    6    6    0  501 -0.37391077185E+02 -0.25577543574E+01  0.94391918736E+02  0.10156017469E+03  0.00000000000E+00 0.  1.
          5    1    5    5  502    0 -0.14149294194E+03  0.80928615430E+02  0.12992026104E+03  0.20849714061E+03  0.47000000000E+01 0. -1.
         11    1    4    4    0    0  0.51333448215E+02 -0.10677525257E+03  0.19434541640E+03  0.22760979404E+03  0.00000000000E+00 0. -1.
        -12    1    4    4    0    0  0.13689010900E+03 -0.10336616963E+03  0.40245909061E+03  0.43748918453E+03  0.00000000000E+00 0.  1.
         -5    1    3    3    0  504  0.61221038554E+02  0.11992044911E+02  0.69995412281E+02  0.93879030902E+02  0.47000000000E+01 0.  1.
<mgrwt>
<rscale>  2 0.36210616E+03</rscale>
<asrwt>0</asrwt>
<pdfrwt beam="1">  1       21 0.19176264E+00 0.36252653E+03</pdfrwt>
<pdfrwt beam="2">  1       21 0.16476725E-01 0.36252653E+03</pdfrwt>
<totfact> 0.44808215E+03</totfact>
</mgrwt>
</event>
<event>
12    1  0.2791583E-001  0.1732707E+03  0.7546771E-02  0.1174657E+00
         21   -1    0    0  502  503  0.00000000000E+00  0.00000000000E+00  0.14762658714E+03  0.14762658714E+03  0.00000000000E+00 0.  1.
         21   -1    0    0  503  504 -0.00000000000E+00 -0.00000000000E+00 -0.64099293153E+03  0.64099293153E+03  0.00000000000E+00 0.  1.
         -6    2    1    2    0  504  0.50195187953E+00  0.44875818824E+01 -0.57263776702E+03  0.59807635422E+03  0.17251354414E+03 0.  0.
        -24    2    3    3    0    0  0.24018666480E+02  0.24410775719E+02 -0.11400252406E+03  0.13838260225E+03  0.70571855590E+02 0.  0.
          6    2    1    2  502    0 -0.50195187953E+00 -0.44875818824E+01  0.79271422629E+02  0.19054316445E+03  0.17321186081E+03 0.  0.
         24    2    5    5    0    0 -0.66478295528E+02 -0.17574571965E+02  0.48350292725E+02  0.11636531395E+03  0.80466801400E+02 0.  0.
          4    1    6    6  501    0 -0.56485721792E+02 -0.30357098485E+02 -0.12914765707E+01  0.64139364719E+02  0.00000000000E+00 0. -1.
         -3    1    6    6    0  501 -0.99925737359E+01  0.12782526520E+02  0.49641769295E+02  0.52225949229E+02  0.00000000000E+00 0.  1.
          5    1    5    5  502    0  0.65976343649E+02  0.13086990083E+02  0.30921129904E+02  0.74177850503E+02  0.47000000000E+01 0. -1.
         13    1    4    4    0    0  0.98354982700E+01  0.36845555517E+02 -0.11325748180E+03  0.11950560309E+03  0.00000000000E+00 0. -1.
        -14    1    4    4    0    0  0.14183168210E+02 -0.12434779798E+02 -0.74504226591E+00  0.18876999155E+02  0.00000000000E+00 0.  1.
         -5    1    3    3    0  504 -0.23516714601E+02 -0.19923193837E+02 -0.45863524296E+03  0.45969375197E+03  0.47000000000E+01 0.  1.
<mgrwt>
<rscale>  2 0.17309593E+03</rscale>
<asrwt>0</asrwt>
<pdfrwt beam="1">  1       21 0.22711782E-01 0.17327071E+03</pdfrwt>
<pdfrwt beam="2">  1       21 0.98614299E-01 0.17327071E+03</pdfrwt>
<totfact> 0.15622187E+04</totfact>
</mgrwt>
</event>
<event>
12    1  0.2791583E-001  0.1933881E+03  0.7546771E-02  0.1155603E+00
         21   -1    0    0  502  503  0.00000000000E+00  0.00000000000E+00  0.19519358905E+03  0.19519358905E+03  0.00000000000E+00 0. -1.
         21   -1    0    0  503  504 -0.00000000000E+00 -0.00000000000E+00 -0.48136406588E+03  0.48136406588E+03  0.00000000000E+00 0. -1.
         -6    2    1    2    0  504 -0.70358491800E+02  0.47618919037E+02 -0.40576544956E+03  0.44917712290E+03  0.17290635865E+03 0.  0.
        -24    2    3    3    0    0 -0.59893257037E+02  0.70408805076E+02 -0.15792637741E+03  0.20002818004E+03  0.80783228807E+02 0.  0.
          6    2    1    2  502    0  0.70358491800E+02 -0.47618919037E+02  0.11959497273E+03  0.22738053202E+03  0.17372699854E+03 0.  0.
         24    2    5    5    0    0  0.91526279431E+02 -0.48950002230E+02  0.29105571532E+02  0.13431996709E+03  0.80134616243E+02 0.  0.
          2    1    6    6  501    0  0.63114708761E+02 -0.64555579755E+02  0.41823270178E+02  0.99499121945E+02  0.00000000000E+00 0. -1.
         -1    1    6    6    0  501  0.28411570670E+02  0.15605577525E+02 -0.12717698646E+02  0.34820845146E+02  0.00000000000E+00 0.  1.
          5    1    5    5  502    0 -0.21167787631E+02  0.13310831931E+01  0.90489401202E+02  0.93060564933E+02  0.47000000000E+01 0. -1.
         13    1    4    4    0    0 -0.48977000298E+02  0.31822486013E+02 -0.14742758116E+03  0.15857587729E+03  0.00000000000E+00 0. -1.
        -14    1    4    4    0    0 -0.10916256740E+02  0.38586319063E+02 -0.10498796256E+02  0.41452302745E+02  0.00000000000E+00 0.  1.
         -5    1    3    3    0  504 -0.10465234763E+02 -0.22789886040E+02 -0.24783907215E+03  0.24914894286E+03  0.47000000000E+01 0.  1.
<mgrwt>
<rscale>  2 0.19320360E+03</rscale>
<asrwt>0</asrwt>
<pdfrwt beam="1">  1       21 0.30029783E-01 0.19338808E+03</pdfrwt>
<pdfrwt beam="2">  1       21 0.74056010E-01 0.19338808E+03</pdfrwt>
<totfact> 0.17387478E+04</totfact>
</mgrwt>
</event>
<event>
12    1  0.2791583E-001  0.2141146E+03  0.7546771E-02  0.1138664E+00
         21   -1    0    0  502  503  0.00000000000E+00  0.00000000000E+00  0.10628778856E+03  0.10628778856E+03  0.00000000000E+00 0. -1.
         21   -1    0    0  503  504 -0.00000000000E+00 -0.00000000000E+00 -0.68463528290E+03  0.68463528290E+03  0.00000000000E+00 0.  1.
         -6    2    1    2    0  504  0.97415578089E+02  0.75687544336E+02 -0.53195953662E+03  0.57343351831E+03  0.17500472023E+03 0.  0.
        -24    2    3    3    0    0  0.18257529553E+02  0.99457092313E+02 -0.31694894487E+03  0.34303683296E+03  0.83621674905E+02 0.  0.
          6    2    1    2  502    0 -0.97415578089E+02 -0.75687544336E+02 -0.46387957720E+02  0.21748955314E+03  0.17300712090E+03 0.  0.
         24    2    5    5    0    0 -0.51092811324E+01 -0.73036563913E+02  0.89693815817E+01  0.10972125924E+03  0.81227215277E+02 0.  0.
          2    1    6    6  501    0  0.59237644238E+01 -0.88810804318E+02  0.13283672108E+02  0.89993921424E+02  0.00000000000E+00 0. -1.
         -1    1    6    6    0  501 -0.11033045556E+02  0.15774240406E+02 -0.43142905258E+01  0.19727337817E+02  0.00000000000E+00 0.  1.
          5    1    5    5  502    0 -0.92306296957E+02 -0.26509804235E+01 -0.55357339302E+02  0.10776829390E+03  0.47000000000E+01 0. -1.
         11    1    4    4    0    0  0.10059435589E+02  0.82311097423E+02 -0.12410935744E+03  0.14926299477E+03  0.00000000000E+00 0. -1.
        -12    1    4    4    0    0  0.81980939643E+01  0.17145994890E+02 -0.19283958743E+03  0.19377383819E+03  0.00000000000E+00 0.  1.
         -5    1    3    3    0  504  0.79158048536E+02 -0.23769547977E+02 -0.21501059175E+03  0.23039668535E+03  0.47000000000E+01 0.  1.
<mgrwt>
<rscale>  2 0.21370601E+03</rscale>
<asrwt>0</asrwt>
<pdfrwt beam="1">  1       21 0.16351967E-01 0.21411458E+03</pdfrwt>
<pdfrwt beam="2">  1       21 0.10532851E+00 0.21411458E+03</pdfrwt>
<totfact> 0.23989435E+04</totfact>
</mgrwt>
</event>
<event>
12    1  0.2791583E-001  0.2536441E+03  0.7546771E-02  0.1111733E+00
         21   -1    0    0  502  503  0.00000000000E+00  0.00000000000E+00  0.20649812559E+03  0.20649812559E+03  0.00000000000E+00 0.  1.
         21   -1    0    0  503  504 -0.00000000000E+00 -0.00000000000E+00 -0.32695755925E+03  0.32695755925E+03  0.00000000000E+00 0.  1.
         -6    2    1    2    0  504 -0.82318836430E+02  0.16638244029E+03  0.77833614076E+01  0.24923473331E+03  0.16612604945E+03 0.  0.
        -24    2    3    3    0    0  0.21091078762E+02  0.71723210323E+02  0.56576375832E+01  0.10894721041E+03  0.79047032150E+02 0.  0.
          6    2    1    2  502    0  0.82318836430E+02 -0.16638244029E+03 -0.12824279507E+03  0.28422095153E+03  0.17284625404E+03 0.  0.
         24    2    5    5    0    0  0.24505866121E+02 -0.14158198875E+03 -0.29778047955E+02  0.16728165807E+03  0.80314531510E+02 0.  0.
          4    1    6    6  501    0  0.35114093166E+02 -0.35586518164E+02  0.14297732785E+02  0.51998317057E+02  0.00000000000E+00 0. -1.
         -3    1    6    6    0  501 -0.10608227045E+02 -0.10599547059E+03 -0.44075780740E+02  0.11528334101E+03  0.00000000000E+00 0.  1.
          5    1    5    5  502    0  0.57812970309E+02 -0.24800451532E+02 -0.98464747110E+02  0.11693929346E+03  0.47000000000E+01 0. -1.
         13    1    4    4    0    0  0.28025006068E+02  0.57907151123E+02  0.36846897889E+02  0.74137257842E+02  0.00000000000E+00 0. -1.
        -14    1    4    4    0    0 -0.69339273059E+01  0.13816059200E+02 -0.31189260306E+02  0.34809952573E+02  0.00000000000E+00 0.  1.
         -5    1    3    3    0  504 -0.10340991519E+03  0.94659229963E+02  0.21257238243E+01  0.14028752289E+03  0.47000000000E+01 0.  1.
<mgrwt>
<rscale>  2 0.25250371E+03</rscale>
<asrwt>0</asrwt>
<pdfrwt beam="1">  1       21 0.31768942E-01 0.25364411E+03</pdfrwt>
<pdfrwt beam="2">  1       21 0.50301163E-01 0.25364411E+03</pdfrwt>
<totfact> 0.34813978E+04</totfact>
</mgrwt>
</event>
<event>
12    1  0.2791583E-001  0.2094780E+03  0.7546771E-02  0.1142042E+00
         21   -1    0    0  502  503  0.00000000000E+00  0.00000000000E+00  0.46260652440E+03  0.46260652440E+03  0.00000000000E+00 0. -1.
         21   -1    0    0  503  504 -0.00000000000E+00 -0.00000000000E+00 -0.16350862193E+04  0.16350862193E+04  0.00000000000E+00 0. -1.
         -6    2    1    2    0  504  0.79795363707E+02 -0.86879634979E+02 -0.16042297236E+04  0.16178082422E+04  0.17272849112E+03 0.  0.
        -24    2    3    3    0    0  0.45346116388E+02  0.13861434321E+02 -0.97381197148E+03  0.97844594602E+03  0.82451827450E+02 0.  0.
          6    2    1    2  502    0 -0.79795363707E+02  0.86879634979E+02  0.43175002872E+03  0.47988450141E+03  0.17310596857E+03 0.  0.
         24    2    5    5    0    0 -0.87192045527E+02  0.31486561364E+02  0.39260190868E+03  0.41149028521E+03  0.81204308876E+02 0.  0.
          4    1    6    6  501    0 -0.85866970227E+02  0.29131882528E+02  0.20843619486E+03  0.22730475245E+03  0.00000000000E+00 0. -1.
         -3    1    6    6    0  501 -0.13250753002E+01  0.23546788357E+01  0.18416571381E+03  0.18418553277E+03  0.00000000000E+00 0.  1.
          5    1    5    5  502    0  0.73966818197E+01  0.55393073615E+02  0.39148120040E+02  0.68394216197E+02  0.47000000000E+01 0. -1.
         13    1    4    4    0    0 -0.21503189452E+02 -0.70350545428E+01 -0.34607871255E+03  0.34681746557E+03  0.00000000000E+00 0. -1.
        -14    1    4    4    0    0  0.66849305841E+02  0.20896488864E+02 -0.62773325894E+03  0.63162848045E+03  0.00000000000E+00 0.  1.
         -5    1    3    3    0  504  0.34449247319E+02 -0.10074106930E+03 -0.63041775208E+03  0.63936229622E+03  0.47000000000E+01 0.  1.
<mgrwt>
<rscale>  2 0.20940004E+03</rscale>
<asrwt>0</asrwt>
<pdfrwt beam="1">  1       21 0.71170234E-01 0.20947804E+03</pdfrwt>
<pdfrwt beam="2">  1       21 0.25155173E+00 0.20947804E+03</pdfrwt>
<totfact> 0.11347429E+02</totfact>
</mgrwt>
</event>
<event>
12    1  0.2791583E-001  0.1907895E+03  0.7546771E-02  0.1158014E+00
         21   -1    0    0  502  503  0.00000000000E+00  0.00000000000E+00  0.75568776013E+03  0.75568776013E+03  0.00000000000E+00 0. -1.
         21   -1    0    0  503  504 -0.00000000000E+00 -0.00000000000E+00 -0.56958280089E+02  0.56958280089E+02  0.00000000000E+00 0. -1.
         -6    2    1    2    0  504  0.11816292058E+02 -0.80494523769E+02  0.18620222871E+03  0.26575954788E+03  0.17128302367E+03 0.  0.
        -24    2    3    3    0    0 -0.36420197823E+02 -0.27170898696E+02  0.16722067680E+03  0.19124406452E+03  0.80912600499E+02 0.  0.
          6    2    1    2  502    0 -0.11816292058E+02  0.80494523769E+02  0.51252725134E+03  0.54688649235E+03  0.17257363366E+03 0.  0.
         24    2    5    5    0    0 -0.30678207463E+02 -0.18889542793E+02  0.21411829307E+03  0.23176276916E+03  0.81051653302E+02 0.  0.
          4    1    6    6  501    0 -0.44071682274E+01 -0.17933885488E+02  0.20195362534E+03  0.20279623806E+03  0.00000000000E+00 0. -1.
         -3    1    6    6    0  501 -0.26271039236E+02 -0.95565730573E+00  0.12164667725E+02  0.28966531105E+02  0.00000000000E+00 0.  1.
          5    1    5    5  502    0  0.18861915405E+02  0.99384066562E+02  0.29840895827E+03  0.31512372318E+03  0.47000000000E+01 0. -1.
         11    1    4    4    0    0  0.18607747559E+02  0.91216650727E+01  0.15678541578E+02  0.25985952146E+02  0.00000000000E+00 0. -1.
        -12    1    4    4    0    0 -0.55027945383E+02 -0.36292563769E+02  0.15154213522E+03  0.16525811237E+03  0.00000000000E+00 0.  1.
         -5    1    3    3    0  504  0.48236489881E+02 -0.53323625072E+02  0.18981551908E+02  0.74515483356E+02  0.47000000000E+01 0.  1.
<mgrwt>
<rscale>  2 0.19049723E+03</rscale>
<asrwt>0</asrwt>
<pdfrwt beam="1">  1       21 0.11625965E+00 0.19078955E+03</pdfrwt>
<pdfrwt beam="2">  1       21 0.87628129E-02 0.19078955E+03</pdfrwt>
<totfact> 0.58492144E+04</totfact>
</mgrwt>
</event>
<event>
12    1  0.2791583E-001  0.1803130E+03  0.7546771E-02  0.1167892E+00
         21   -1    0    0  502  503  0.00000000000E+00  0.00000000000E+00  0.37457960203E+02  0.37457960203E+02  0.00000000000E+00 0.  1.
         21   -1    0    0  503  504 -0.00000000000E+00 -0.00000000000E+00 -0.18673861171E+04  0.18673861171E+04  0.00000000000E+00 0.  1.
         -6    2    1    2    0  504 -0.42011883029E+02  0.22639181023E+02 -0.16125240547E+04  0.16223952989E+04  0.17220670112E+03 0.  0.
        -24    2    3    3    0    0 -0.88189042025E+02  0.10649211596E+02 -0.85693544413E+03  0.86528742820E+03  0.80580798893E+02 0.  0.
          6    2    1    2  502    0  0.42011883029E+02 -0.22639181023E+02 -0.21740410222E+03  0.28244877848E+03  0.17388282827E+03 0.  0.
         24    2    5    5    0    0 -0.83219639486E+01 -0.32461131204E+02 -0.40145076341E+02  0.97860536401E+02  0.82716850201E+02 0.  0.
          2    1    6    6  501    0  0.43770341345E+01  0.21337075022E+02 -0.36447940242E+02  0.42460352639E+02  0.00000000000E+00 0. -1.
         -1    1    6    6    0  501 -0.12698998083E+02 -0.53798206227E+02 -0.36971360990E+01  0.55400183762E+02  0.00000000000E+00 0.  1.
          5    1    5    5  502    0  0.50333846977E+02  0.98219501814E+01 -0.17725902588E+03  0.18458824208E+03  0.47000000000E+01 0. -1.
         11    1    4    4    0    0 -0.60377084176E+02  0.21384807089E+02 -0.26610240072E+03  0.27370274010E+03  0.00000000000E+00 0. -1.
        -12    1    4    4    0    0 -0.27811957849E+02 -0.10735595493E+02 -0.59083304341E+03  0.59158468810E+03  0.00000000000E+00 0.  1.
         -5    1    3    3    0  504  0.46177158996E+02  0.11989969427E+02 -0.75558861059E+03  0.75710787067E+03  0.47000000000E+01 0.  1.
<mgrwt>
<rscale>  2 0.17990766E+03</rscale>
<asrwt>0</asrwt>
<pdfrwt beam="1">  1       21 0.57627641E-02 0.18031297E+03</pdfrwt>
<pdfrwt beam="2">  1       21 0.28729012E+00 0.18031297E+03</pdfrwt>
<totfact> 0.86507912E+03</totfact>
</mgrwt>
</event>
<event>
12    1  0.2791583E-001  0.2257449E+03  0.7546771E-02  0.1129865E+00
         21   -1    0    0  502  503  0.00000000000E+00  0.00000000000E+00  0.31884955101E+03  0.31884955101E+03  0.00000000000E+00 0.  1.
         21   -1    0    0  503  504 -0.00000000000E+00 -0.00000000000E+00 -0.26522897579E+03  0.26522897579E+03  0.00000000000E+00 0.  1.
         -6    2    1    2    0  504  0.15578826070E+02  0.14136097149E+03 -0.15798877535E+03  0.27466090247E+03  0.17393255625E+03 0.  0.
        -24    2    3    3    0    0  0.61136193156E+02  0.50993288309E+02 -0.41573818448E+02  0.12033551878E+03  0.80089357180E+02 0.  0.
          6    2    1    2  502    0 -0.15578826070E+02 -0.14136097149E+03  0.21160935058E+03  0.30941762433E+03  0.17531436026E+03 0.  0.
         24    2    5    5    0    0 -0.78219615197E+02 -0.76309541924E+02  0.13971494706E+03  0.19389077807E+03  0.78306532276E+02 0.  0.
          4    1    6    6  501    0 -0.72245232176E+02 -0.49225416475E+02  0.14124828398E+03  0.16611319312E+03  0.00000000000E+00 0. -1.
         -3    1    6    6    0  501 -0.59743830213E+01 -0.27084125449E+02 -0.15333369166E+01  0.27777584955E+02  0.00000000000E+00 0.  1.
          5    1    5    5  502    0  0.62640789127E+02 -0.65051429569E+02  0.71894403512E+02  0.11552684626E+03  0.47000000000E+01 0. -1.
         13    1    4    4    0    0  0.16321381506E+02 -0.14554304830E+02 -0.34195960204E+02  0.40590380359E+02  0.00000000000E+00 0. -1.
        -14    1    4    4    0    0  0.44814811650E+02  0.65547593140E+02 -0.73778582432E+01  0.79745138422E+02  0.00000000000E+00 0.  1.
         -5    1    3    3    0  504 -0.45557367086E+02  0.90367683184E+02 -0.11641495690E+03  0.15432538369E+03  0.47000000000E+01 0.  1.
<mgrwt>
<rscale>  2 0.22547654E+03</rscale>
<asrwt>0</asrwt>
<pdfrwt beam="1">  1       21 0.49053777E-01 0.22574488E+03</pdfrwt>
<pdfrwt beam="2">  1       21 0.40804458E-01 0.22574488E+03</pdfrwt>
<totfact> 0.22518405E+04</totfact>
</mgrwt>
</event>
<event>
12    1  0.2791583E-001  0.2151675E+03  0.7546771E-02  0.1138223E+00
         21   -1    0    0  502  503  0.00000000000E+00  0.00000000000E+00  0.59898075211E+02  0.59898075211E+02  0.00000000000E+00 0.  1.
         21   -1    0    0  503  504 -0.00000000000E+00 -0.00000000000E+00 -0.10353065815E+04  0.10353065815E+04  0.00000000000E+00 0. -1.
         -6    2    1    2    0  504  0.40156529942E+01  0.12247134755E+03 -0.76697436034E+03  0.79563522067E+03  0.17254094736E+03 0.  0.
        -24    2    3    3    0    0 -0.25095717433E+02  0.11320485460E+03 -0.34353873122E+03  0.37107290276E+03  0.78937349705E+02 0.  0.
          6    2    1    2  502    0 -0.40156529942E+01 -0.12247134755E+03 -0.20843414591E+03  0.29956943600E+03  0.17686632626E+03 0.  0.
         24    2    5    5    0    0 -0.40459370507E+01 -0.10222579744E+02 -0.27311008964E+02  0.86432232473E+02  0.81263576443E+02 0.  0.
          2    1    6    6  501    0 -0.42528776178E+02 -0.15683818051E+01 -0.13852074539E+02  0.44755296823E+02  0.00000000000E+00 0. -1.
         -1    1    6    6    0  501  0.38482839128E+02 -0.86541979385E+01 -0.13458934425E+02  0.41676935649E+02  0.00000000000E+00 0.  1.
          5    1    5    5  502    0  0.30284056495E-01 -0.11224876780E+03 -0.18112313695E+03  0.21313720353E+03  0.47000000000E+01 0. -1.
         11    1    4    4    0    0 -0.40199467400E+02  0.25483710419E+02 -0.16262811829E+03  0.16945005616E+03  0.00000000000E+00 0. -1.
        -12    1    4    4    0    0  0.15103749967E+02  0.87721144183E+02 -0.18091061293E+03  0.20162284660E+03  0.00000000000E+00 0.  1.
         -5    1    3    3    0  504  0.29111370427E+02  0.92664929430E+01 -0.42343562912E+03  0.42456231791E+03  0.47000000000E+01 0.  1.
<mgrwt>
<rscale>  2 0.21427671E+03</rscale>
<asrwt>0</asrwt>
<pdfrwt beam="1">  1       21 0.92150897E-02 0.21516750E+03</pdfrwt>
<pdfrwt beam="2">  1       21 0.15927792E+00 0.21516750E+03</pdfrwt>
<totfact> 0.23527876E+04</totfact>
</mgrwt>
</event>
<event>
12    1  0.2791583E-001  0.1855303E+03  0.7546771E-02  0.1162829E+00
         21   -1    0    0  502  503  0.00000000000E+00  0.00000000000E+00  0.53858455515E+03  0.53858455515E+03  0.00000000000E+00 0.  1.
         21   -1    0    0  503  504 -0.00000000000E+00 -0.00000000000E+00 -0.63865017101E+02  0.63865017101E+02  0.00000000000E+00 0.  1.
         -6    2    1    2    0  504 -0.11280320967E+02 -0.64072436770E+02  0.21559421744E+03  0.28443337264E+03  0.17374968802E+03 0.  0.
        -24    2    3    3    0    0 -0.38140706505E+02 -0.70860345397E+02  0.54622461640E+02  0.12102727674E+03  0.72028371883E+02 0.  0.
          6    2    1    2  502    0  0.11280320967E+02  0.64072436770E+02  0.25912532061E+03  0.31801619961E+03  0.17249883662E+03 0.  0.
         24    2    5    5    0    0  0.31561674681E+01  0.40379003002E+02  0.27402920259E+03  0.28849338856E+03  0.80597804536E+02 0.  0.
          4    1    6    6  501    0 -0.37023521265E+02  0.64631912420E+01  0.11009305722E+03  0.11633140253E+03  0.00000000000E+00 0. -1.
         -3    1    6    6    0  501  0.40179688734E+02  0.33915811760E+02  0.16393614537E+03  0.17216198603E+03  0.00000000000E+00 0.  1.
          5    1    5    5  502    0  0.81241534986E+01  0.23693433768E+02 -0.14903881980E+02  0.29522811043E+02  0.47000000000E+01 0. -1.
         13    1    4    4    0    0 -0.40755611497E+02 -0.70099571030E+02  0.68953128604E+02  0.10644014126E+03  0.00000000000E+00 0. -1.
        -14    1    4    4    0    0  0.26149049921E+01 -0.76077436700E+00 -0.14330666964E+02  0.14587135476E+02  0.00000000000E+00 0.  1.
         -5    1    3    3    0  504  0.26860385538E+02  0.67879086279E+01  0.16097175580E+03  0.16340609590E+03  0.47000000000E+01 0.  1.
<mgrwt>
<rscale>  2 0.18523684E+03</rscale>
<asrwt>0</asrwt>
<pdfrwt beam="1">  1       21 0.82859160E-01 0.18553026E+03</pdfrwt>
<pdfrwt beam="2">  1       21 0.98253876E-02 0.18553026E+03</pdfrwt>
<totfact> 0.10660854E+05</totfact>
</mgrwt>
</event>
<event>
12    1  0.2791583E-001  0.2023879E+03  0.7546771E-02  0.1147955E+00
         21   -1    0    0  502  503  0.00000000000E+00  0.00000000000E+00  0.10348326637E+04  0.10348326637E+04  0.00000000000E+00 0.  1.
         21   -1    0    0  503  504 -0.00000000000E+00 -0.00000000000E+00 -0.43218187217E+02  0.43218187217E+02  0.00000000000E+00 0.  1.
         -6    2    1    2    0  504  0.19958731895E+02  0.10209706898E+03  0.33403260143E+03  0.39002847106E+03  0.17240147025E+03 0.  0.
        -24    2    3    3    0    0 -0.21962718265E+02  0.11080977893E+03  0.31174530062E+03  0.34152967648E+03  0.81830430507E+02 0.  0.
          6    2    1    2  502    0 -0.19958731895E+02 -0.10209706898E+03  0.65758187506E+03  0.68802237987E+03  0.17360504116E+03 0.  0.
         24    2    5    5    0    0 -0.32259032151E+02 -0.52624202652E+02  0.16716557350E+03  0.19494114850E+03  0.79042839995E+02 0.  0.
          4    1    6    6  501    0  0.11323593463E+02 -0.19529333048E+02  0.41078947918E+01  0.22945444381E+02  0.00000000000E+00 0. -1.
         -3    1    6    6    0  501 -0.43582625614E+02 -0.33094869604E+02  0.16305767871E+03  0.17199570412E+03  0.00000000000E+00 0.  1.
          5    1    5    5  502    0  0.12300300256E+02 -0.49472866332E+02  0.49041630157E+03  0.49308123137E+03  0.47000000000E+01 0. -1.
         11    1    4    4    0    0 -0.11347559403E+02  0.11375472227E+03  0.20923003632E+03  0.23842422704E+03  0.00000000000E+00 0. -1.
        -12    1    4    4    0    0 -0.10615158862E+02 -0.29449433353E+01  0.10251526430E+03  0.10310544944E+03  0.00000000000E+00 0.  1.
         -5    1    3    3    0  504  0.41921450160E+02 -0.87127099499E+01  0.22287300808E+02  0.48498794578E+02  0.47000000000E+01 0.  1.
<mgrwt>
<rscale>  2 0.20212957E+03</rscale>
<asrwt>0</asrwt>
<pdfrwt beam="1">  1       21 0.15920501E+00 0.20238793E+03</pdfrwt>
<pdfrwt beam="2">  1       21 0.66489527E-02 0.20238793E+03</pdfrwt>
<totfact> 0.41921327E+04</totfact>
</mgrwt>
</event>
<event>
12    1  0.2791583E-001  0.2322423E+03  0.7546771E-02  0.1125157E+00
         21   -1    0    0  502  503  0.00000000000E+00  0.00000000000E+00  0.49332393737E+02  0.49332393737E+02  0.00000000000E+00 0.  1.
         21   -1    0    0  503  504 -0.00000000000E+00 -0.00000000000E+00 -0.23624450965E+04  0.23624450965E+04  0.00000000000E+00 0. -1.
         -6    2    1    2    0  504 -0.14675545113E+02 -0.15356143398E+03 -0.20417783116E+04  0.20549440767E+04  0.17360875216E+03 0.  0.
        -24    2    3    3    0    0  0.41672692802E+02 -0.60202921553E+02 -0.62778318984E+03  0.63674266990E+03  0.77255997419E+02 0.  0.
          6    2    1    2  502    0  0.14675545113E+02  0.15356143398E+03 -0.27133439113E+03  0.35683341355E+03  0.17294868483E+03 0.  0.
         24    2    5    5    0    0  0.36386877541E+02  0.14970124156E+03 -0.13934731651E+03  0.22293434369E+03  0.80917120550E+02 0.  0.
          4    1    6    6  501    0  0.54068977025E+02  0.10557963473E+03 -0.66606651735E+02  0.13604028669E+03  0.00000000000E+00 0. -1.
         -3    1    6    6    0  501 -0.17682099484E+02  0.44121606826E+02 -0.72740664771E+02  0.86894057003E+02  0.00000000000E+00 0.  1.
          5    1    5    5  502    0 -0.21711332428E+02  0.38601924243E+01 -0.13198707462E+03  0.13389906986E+03  0.47000000000E+01 0. -1.
         13    1    4    4    0    0 -0.17733670870E+02 -0.39893522280E+02 -0.25849492447E+03  0.26215568310E+03  0.00000000000E+00 0. -1.
        -14    1    4    4    0    0  0.59406363672E+02 -0.20309399273E+02 -0.36928826537E+03  0.37458698680E+03  0.00000000000E+00 0.  1.
         -5    1    3    3    0  504 -0.56348237915E+02 -0.93358512429E+02 -0.14139951218E+04  0.14182014068E+04  0.47000000000E+01 0.  1.
<mgrwt>
<rscale>  2 0.23211895E+03</rscale>
<asrwt>0</asrwt>
<pdfrwt beam="1">  1       21 0.75895991E-02 0.23224230E+03</pdfrwt>
<pdfrwt beam="2">  1       21 0.36345309E+00 0.23224230E+03</pdfrwt>
<totfact> 0.18170056E+03</totfact>
</mgrwt>
</event>
<event>
12    1  0.2791583E-001  0.1914607E+03  0.7546771E-02  0.1157454E+00
         21   -1    0    0  502  503  0.00000000000E+00  0.00000000000E+00  0.23932829805E+03  0.23932829805E+03  0.00000000000E+00 0. -1.
         21   -1    0    0  503  504 -0.00000000000E+00 -0.00000000000E+00 -0.19590766921E+03  0.19590766921E+03  0.00000000000E+00 0. -1.
         -6    2    1    2    0  504 -0.53631376410E+02  0.59026301135E+02 -0.81151785668E+02  0.20794906775E+03  0.17405968431E+03 0.  0.
        -24    2    3    3    0    0 -0.95079233432E+01  0.64502396818E+02 -0.11273967240E+03  0.15320647626E+03  0.80690958812E+02 0.  0.
          6    2    1    2  502    0  0.53631376410E+02 -0.59026301135E+02  0.12457241451E+03  0.22728689950E+03  0.17257062169E+03 0.  0.
         24    2    5    5    0    0  0.46408665568E+02 -0.10693833365E+03  0.81228120324E+02  0.16210601082E+03  0.78043447957E+02 0.  0.
          2    1    6    6  501    0  0.41433547636E+02 -0.84625223530E+02  0.96295985071E+02  0.13472595915E+03  0.00000000000E+00 0. -1.
         -1    1    6    6    0  501  0.49751179324E+01 -0.22313110119E+02 -0.15067864746E+02  0.27380051673E+02  0.00000000000E+00 0.  1.
          5    1    5    5  502    0  0.72227108418E+01  0.47912032514E+02  0.43344294182E+02  0.65180888684E+02  0.47000000000E+01 0. -1.
         13    1    4    4    0    0 -0.43377055110E+02  0.25715425599E+02 -0.70086316893E+02  0.86342016651E+02  0.00000000000E+00 0. -1.
        -14    1    4    4    0    0  0.33869131767E+02  0.38786971219E+02 -0.42653355511E+02  0.66864459613E+02  0.00000000000E+00 0.  1.
         -5    1    3    3    0  504 -0.44123453067E+02 -0.54760956829E+01  0.31587886736E+02  0.54742591489E+02  0.47000000000E+01 0.  1.
<mgrwt>
<rscale>  2 0.19112163E+03</rscale>
<asrwt>0</asrwt>
<pdfrwt beam="1">  1       21 0.36819738E-01 0.19146071E+03</pdfrwt>
<pdfrwt beam="2">  1       21 0.30139641E-01 0.19146071E+03</pdfrwt>
<totfact> 0.75164938E+04</totfact>
</mgrwt>
</event>
<event>
12    1  0.2791583E-001  0.1902571E+03  0.7546771E-02  0.1158268E+00
         21   -1    0    0  502  503  0.00000000000E+00  0.00000000000E+00  0.38157916344E+03  0.38157916344E+03  0.00000000000E+00 0. -1.
         21   -1    0    0  503  504 -0.00000000000E+00 -0.00000000000E+00 -0.98336598123E+02  0.98336598123E+02  0.00000000000E+00 0. -1.
         -6    2    1    2    0  504 -0.69016308356E+02  0.39538004603E+02  0.95918114297E+02  0.21291723945E+03  0.17264692750E+03 0.  0.
        -24    2    3    3    0    0 -0.89298711364E+02  0.75794459476E+02  0.51925637344E+02  0.15222675897E+03  0.82204953592E+02 0.  0.
          6    2    1    2  502    0  0.69016308356E+02 -0.39538004603E+02  0.18732445102E+03  0.26699852212E+03  0.17283302993E+03 0.  0.
         24    2    5    5    0    0  0.38900508305E+02 -0.82787874931E+02  0.76051972289E+02  0.14378664274E+03  0.80768894757E+02 0.  0.
          2    1    6    6  501    0  0.48036903991E+02 -0.69057605409E+02  0.89262972875E+02  0.12265551490E+03  0.00000000000E+00 0. -1.
         -1    1    6    6    0  501 -0.91363956858E+01 -0.13730269521E+02 -0.13211000586E+02  0.21131127839E+02  0.00000000000E+00 0.  1.
          5    1    5    5  502    0  0.30115800050E+02  0.43249870328E+02  0.11127247873E+03  0.12321187938E+03  0.47000000000E+01 0. -1.
         11    1    4    4    0    0 -0.83547406911E+02  0.56005680763E+02  0.46900865819E+01  0.10069162026E+03  0.00000000000E+00 0. -1.
        -12    1    4    4    0    0 -0.57513044529E+01  0.19788778712E+02  0.47235550762E+02  0.51535138708E+02  0.00000000000E+00 0.  1.
         -5    1    3    3    0  504  0.20282403008E+02 -0.36256454873E+02  0.43992476953E+02  0.60690480474E+02  0.47000000000E+01 0.  1.
<mgrwt>
<rscale>  2 0.19021482E+03</rscale>
<asrwt>0</asrwt>
<pdfrwt beam="1">  1       21 0.58704486E-01 0.19025709E+03</pdfrwt>
<pdfrwt beam="2">  1       21 0.15128708E-01 0.19025709E+03</pdfrwt>
<totfact> 0.10496961E+05</totfact>
</mgrwt>
</event>
<event>
12    1  0.2791583E-001  0.2244321E+03  0.7546771E-02  0.1130724E+00
         21   -1    0    0  502  503  0.00000000000E+00  0.00000000000E+00  0.16798480078E+03  0.16798480078E+03  0.00000000000E+00 0.  1.
         21   -1    0    0  503  504 -0.00000000000E+00 -0.00000000000E+00 -0.31782181711E+03  0.31782181711E+03  0.00000000000E+00 0. -1.
         -6    2    1    2    0  504 -0.13865087553E+03  0.33699452158E+02 -0.13396815516E+03  0.26137564555E+03  0.17323407034E+03 0.  0.
        -24    2    3    3    0    0 -0.34293994755E+02  0.28028785029E+02  0.53515326356E+00  0.90976863248E+02  0.79465793843E+02 0.  0.
          6    2    1    2  502    0  0.13865087553E+03 -0.33699452158E+02 -0.15868861176E+02  0.22443097234E+03  0.17250426728E+03 0.  0.
         24    2    5    5    0    0  0.48424997436E+02 -0.68730967358E+02  0.26078610948E+02  0.11883932233E+03  0.79835858683E+02 0.  0.
          2    1    6    6  501    0  0.23802725233E+02  0.15289660130E+02  0.42788016848E+01  0.28612087992E+02  0.00000000000E+00 0. -1.
         -1    1    6    6    0  501  0.24622272202E+02 -0.84020627488E+02  0.21799809263E+02  0.90227234335E+02  0.00000000000E+00 0.  1.
          5    1    5    5  502    0  0.90225878098E+02  0.35031515199E+02 -0.41947472124E+02  0.10559165002E+03  0.47000000000E+01 0. -1.
         13    1    4    4    0    0 -0.24191840248E+02  0.50631671754E+02 -0.19208167916E+02  0.59310749733E+02  0.00000000000E+00 0. -1.
        -14    1    4    4    0    0 -0.10102154507E+02 -0.22602886725E+02  0.19743321180E+02  0.31666113516E+02  0.00000000000E+00 0.  1.
         -5    1    3    3    0  504 -0.10435688078E+03  0.56706671290E+01 -0.13450330843E+03  0.17039878230E+03  0.47000000000E+01 0.  1.
<mgrwt>
<rscale>  2 0.22429124E+03</rscale>
<asrwt>0</asrwt>
<pdfrwt beam="1">  1       21 0.25843816E-01 0.22443209E+03</pdfrwt>
<pdfrwt beam="2">  1       21 0.48895664E-01 0.22443209E+03</pdfrwt>
<totfact> 0.55925086E+04</totfact>
</mgrwt>
</event>
<event>
12    1  0.2791583E-001  0.1927914E+03  0.7546771E-02  0.1156369E+00
         21   -1    0    0  502  503  0.00000000000E+00  0.00000000000E+00  0.37071478970E+03  0.37071478970E+03  0.00000000000E+00 0. -1.
         21   -1    0    0  503  504 -0.00000000000E+00 -0.00000000000E+00 -0.15106889305E+03  0.15106889305E+03  0.00000000000E+00 0. -1.
         -6    2    1    2    0  504  0.81706679677E+02  0.21400928994E+01 -0.43200910898E+02  0.19581289512E+03  0.17261462769E+03 0.  0.
        -24    2    3    3    0    0  0.88518376856E+02 -0.48457273278E+02 -0.55432738224E+00  0.12912471200E+03  0.80556027676E+02 0.  0.
          6    2    1    2  502    0 -0.81706679677E+02 -0.21400928994E+01  0.26284680755E+03  0.32597078763E+03  0.17460798563E+03 0.  0.
         24    2    5    5    0    0 -0.68458172143E+01  0.59228456158E+02  0.94107234459E+02  0.13138049735E+03  0.69640421273E+02 0.  0.
          4    1    6    6  501    0 -0.18764568160E+02  0.26753282552E+02  0.90951271904E+02  0.96643577161E+02  0.00000000000E+00 0. -1.
         -3    1    6    6    0  501  0.11918750946E+02  0.32475173605E+02  0.31559625556E+01  0.34736920192E+02  0.00000000000E+00 0.  1.
          5    1    5    5  502    0 -0.74860862463E+02 -0.61368549057E+02  0.16873957309E+03  0.19459029027E+03  0.47000000000E+01 0. -1.
         13    1    4    4    0    0  0.28659811292E+02 -0.46365397507E+02 -0.30177672565E+02  0.62304307963E+02  0.00000000000E+00 0. -1.
        -14    1    4    4    0    0  0.59858565565E+02 -0.20918757711E+01  0.29623345183E+02  0.66820404036E+02  0.00000000000E+00 0.  1.
         -5    1    3    3    0  504 -0.68116971792E+01  0.50597366178E+02 -0.42646583516E+02  0.66688183122E+02  0.47000000000E+01 0.  1.
<mgrwt>
<rscale>  2 0.19233890E+03</rscale>
<asrwt>0</asrwt>
<pdfrwt beam="1">  1       21 0.57033045E-01 0.19279136E+03</pdfrwt>
<pdfrwt beam="2">  1       21 0.23241368E-01 0.19279136E+03</pdfrwt>
<totfact> 0.50253749E+04</totfact>
</mgrwt>
</event>
<event>
12    1  0.2791583E-001  0.1792302E+03  0.7546771E-02  0.1169250E+00
         21   -1    0    0  502  503  0.00000000000E+00  0.00000000000E+00  0.11216917180E+04  0.11216917180E+04  0.00000000000E+00 0. -1.
         21   -1    0    0  503  504 -0.00000000000E+00 -0.00000000000E+00 -0.60283136088E+02  0.60283136088E+02  0.00000000000E+00 0. -1.
         -6    2    1    2    0  504 -0.40117909336E+02  0.50143651063E+01  0.10145676055E+03  0.20595370126E+03  0.17461060189E+03 0.  0.
        -24    2    3    3    0    0 -0.96187103184E+02 -0.17113630881E+02  0.70607375912E+02  0.13807751075E+03  0.67343613362E+02 0.  0.
          6    2    1    2  502    0  0.40117909336E+02 -0.50143651063E+01  0.95995182137E+03  0.97602115284E+03  0.17168343234E+03 0.  0.
         24    2    5    5    0    0  0.76397072766E+02  0.12850719590E+02  0.87138082724E+03  0.87854166807E+03  0.80803853463E+02 0.  0.
          2    1    6    6  501    0  0.75166428618E+02  0.10994769417E+02  0.87266888375E+03  0.87596909627E+03  0.00000000000E+00 0. -1.
         -1    1    6    6    0  501  0.12306441478E+01  0.18559501732E+01 -0.12880565180E+01  0.25725717983E+01  0.00000000000E+00 0.  1.
          5    1    5    5  502    0 -0.36279163429E+02 -0.17865084696E+02  0.88570994134E+02  0.97479484776E+02  0.47000000000E+01 0. -1.
         13    1    4    4    0    0 -0.40996866051E+02 -0.32734193262E+02  0.78312582741E+01  0.53043369432E+02  0.00000000000E+00 0. -1.
        -14    1    4    4    0    0 -0.55190237133E+02  0.15620562381E+02  0.62776117638E+02  0.85034141317E+02  0.00000000000E+00 0.  1.
         -5    1    3    3    0  504  0.56069193847E+02  0.22127995987E+02  0.30849384640E+02  0.67876190507E+02  0.47000000000E+01 0.  1.
<mgrwt>
<rscale>  2 0.17851326E+03</rscale>
<asrwt>0</asrwt>
<pdfrwt beam="1">  1       21 0.17256794E+00 0.17923017E+03</pdfrwt>
<pdfrwt beam="2">  1       21 0.92743295E-02 0.17923017E+03</pdfrwt>
<totfact> 0.19156868E+04</totfact>
</mgrwt>
</event>
<event>
12    1  0.2791583E-001  0.2616247E+03  0.7546771E-02  0.1106829E+00
         21   -1    0    0  502  503  0.00000000000E+00  0.00000000000E+00  0.14053673777E+03  0.14053673777E+03  0.00000000000E+00 0. -1.
         21   -1    0    0  503  504 -0.00000000000E+00 -0.00000000000E+00 -0.71444543604E+03  0.71444543604E+03  0.00000000000E+00 0. -1.
         -6    2    1    2    0  504 -0.18842540537E+03  0.43500602738E+02 -0.53401373546E+03  0.59465801828E+03  0.17621309038E+03 0.  0.
        -24    2    3    3    0    0 -0.15127825472E+03 -0.98407657006E+01 -0.48099147176E+03  0.51064216957E+03  0.80129135821E+02 0.  0.
          6    2    1    2  502    0  0.18842540537E+03 -0.43500602738E+02 -0.39894962822E+02  0.26032415553E+03  0.16964852509E+03 0.  0.
         24    2    5    5    0    0  0.98499018331E+02 -0.11630115739E+02  0.50934107142E+02  0.12851181552E+03  0.63903734273E+02 0.  0.
          4    1    6    6  501    0  0.41243280238E+02  0.26657020213E+02  0.21530284588E+02  0.53620500239E+02  0.00000000000E+00 0. -1.
         -3    1    6    6    0  501  0.57255738093E+02 -0.38287135952E+02  0.29403822554E+02  0.74891315283E+02  0.00000000000E+00 0.  1.
          5    1    5    5  502    0  0.89926387041E+02 -0.31870486999E+02 -0.90829069964E+02  0.13181234001E+03  0.47000000000E+01 0. -1.
         11    1    4    4    0    0 -0.91930310932E+02 -0.66148158656E+01 -0.39818741489E+03  0.40871524957E+03  0.00000000000E+00 0. -1.
        -12    1    4    4    0    0 -0.59347943789E+02 -0.32259498350E+01 -0.82804056877E+02  0.10192692000E+03  0.00000000000E+00 0.  1.
         -5    1    3    3    0  504 -0.37147150650E+02  0.53341368438E+02 -0.53022263692E+02  0.84015848715E+02  0.47000000000E+01 0.  1.
<mgrwt>
<rscale>  2 0.26052386E+03</rscale>
<asrwt>0</asrwt>
<pdfrwt beam="1">  1       21 0.21621037E-01 0.26162471E+03</pdfrwt>
<pdfrwt beam="2">  1       21 0.10991468E+00 0.26162471E+03</pdfrwt>
<totfact> 0.12516988E+04</totfact>
</mgrwt>
</event>
<event>
12    1  0.2791583E-001  0.2150719E+03  0.7546771E-02  0.1137658E+00
         21   -1    0    0  502  503  0.00000000000E+00  0.00000000000E+00  0.13995058176E+03  0.13995058176E+03  0.00000000000E+00 0. -1.
         21   -1    0    0  503  504 -0.00000000000E+00 -0.00000000000E+00 -0.42971272957E+03  0.42971272957E+03  0.00000000000E+00 0. -1.
         -6    2    1    2    0  504 -0.10974417211E+03  0.65268384186E+02 -0.28192480159E+03  0.35444866127E+03  0.17276722616E+03 0.  0.
        -24    2    3    3    0    0 -0.89437747108E+02 -0.11152815287E+02 -0.22609332690E+03  0.25753739159E+03  0.84165430546E+02 0.  0.
          6    2    1    2  502    0  0.10974417211E+03 -0.65268384186E+02 -0.78373462220E+01  0.21521465006E+03  0.17306697062E+03 0.  0.
         24    2    5    5    0    0  0.77553637013E+02 -0.52663357900E+02  0.61188421450E+02  0.13787278662E+03  0.80479105936E+02 0.  0.
          4    1    6    6  501    0  0.23355650025E+02 -0.64020958429E+02  0.32303170520E+02  0.75416605147E+02  0.00000000000E+00 0. -1.
         -3    1    6    6    0  501  0.54197986988E+02  0.11357600528E+02  0.28885250930E+02  0.62456181476E+02  0.00000000000E+00 0.  1.
          5    1    5    5  502    0  0.32190535096E+02 -0.12605026286E+02 -0.69025767671E+02  0.77341863438E+02  0.47000000000E+01 0. -1.
         13    1    4    4    0    0 -0.88652041264E+02 -0.21888752526E+02 -0.11946387736E+03  0.15036595326E+03  0.00000000000E+00 0. -1.
        -14    1    4    4    0    0 -0.78570584415E+00  0.10735937238E+02 -0.10662944955E+03  0.10717143833E+03  0.00000000000E+00 0.  1.
         -5    1    3    3    0  504 -0.20306425001E+02  0.76421199473E+02 -0.55831474687E+02  0.96911269680E+02  0.47000000000E+01 0.  1.
<mgrwt>
<rscale>  2 0.21501159E+03</rscale>
<asrwt>0</asrwt>
<pdfrwt beam="1">  1       21 0.21530859E-01 0.21507190E+03</pdfrwt>
<pdfrwt beam="2">  1       21 0.66109650E-01 0.21507190E+03</pdfrwt>
<totfact> 0.41751380E+04</totfact>
</mgrwt>
</event>
<event>
12    1  0.2791583E-001  0.1749341E+03  0.7546771E-02  0.1173221E+00
         21   -1    0    0  502  503  0.00000000000E+00  0.00000000000E+00  0.15747724499E+02  0.15747724499E+02  0.00000000000E+00 0. -1.
         21   -1    0    0  503  504 -0.00000000000E+00 -0.00000000000E+00 -0.23210135363E+04  0.23210135363E+04  0.00000000000E+00 0. -1.
         -6    2    1    2    0  504  0.15215766484E+02  0.48480004444E+01 -0.16308392972E+04  0.16400166539E+04  0.17251895268E+03 0.  0.
        -24    2    3    3    0    0 -0.35507497235E+02 -0.20757406741E+01 -0.14305869666E+04  0.14332707384E+04  0.80130202522E+02 0.  0.
          6    2    1    2  502    0 -0.15215766484E+02 -0.48480004444E+01 -0.67442651453E+03  0.69674460685E+03  0.17420361942E+03 0.  0.
         24    2    5    5    0    0 -0.37667243220E+02  0.35092050424E+02 -0.61309960590E+03  0.62004808677E+03  0.76930032728E+02 0.  0.
          4    1    6    6  501    0 -0.38148811762E+02  0.27928651962E+02 -0.15872901063E+03  0.16562077242E+03  0.00000000000E+00 0. -1.
         -3    1    6    6    0  501  0.48156854228E+00  0.71633984619E+01 -0.45437059527E+03  0.45442731435E+03  0.00000000000E+00 0.  1.
          5    1    5    5  502    0  0.22451476736E+02 -0.39940050869E+02 -0.61326908628E+02  0.76696520083E+02  0.47000000000E+01 0. -1.
         11    1    4    4    0    0 -0.50848192660E+02  0.23260008847E+02 -0.77465460252E+03  0.77667001997E+03  0.00000000000E+00 0. -1.
        -12    1    4    4    0    0  0.15340695425E+02 -0.25335749521E+02 -0.65593236411E+03  0.65660071842E+03  0.00000000000E+00 0.  1.
         -5    1    3    3    0  504  0.50723263718E+02  0.69237411185E+01 -0.20025233060E+03  0.20674591552E+03  0.47000000000E+01 0.  1.
<mgrwt>
<rscale>  2 0.17451315E+03</rscale>
<asrwt>0</asrwt>
<pdfrwt beam="1">  1       21 0.24227265E-02 0.17493406E+03</pdfrwt>
<pdfrwt beam="2">  1       21 0.35707906E+00 0.17493406E+03</pdfrwt>
<totfact> 0.14600308E+04</totfact>
</mgrwt>
</event>
<event>
12    1  0.2791583E-001  0.2262214E+03  0.7546771E-02  0.1129449E+00
         21   -1    0    0  502  503  0.00000000000E+00  0.00000000000E+00  0.25126100823E+03  0.25126100823E+03  0.00000000000E+00 0.  1.
         21   -1    0    0  503  504 -0.00000000000E+00 -0.00000000000E+00 -0.25555048404E+03  0.25555048404E+03  0.00000000000E+00 0.  1.
         -6    2    1    2    0  504  0.11899356111E+03  0.82262151309E+02 -0.11697383995E+03  0.25407862689E+03  0.17305068704E+03 0.  0.
        -24    2    3    3    0    0  0.30693871875E+02 -0.18372916107E+02 -0.32403723741E+02  0.95653734693E+02  0.82583035978E+02 0.  0.
          6    2    1    2  502    0 -0.11899356111E+03 -0.82262151309E+02  0.11268436414E+03  0.25273286538E+03  0.17392413920E+03 0.  0.
         24    2    5    5    0    0 -0.15499422567E+03 -0.67165871912E+02  0.96050307470E+02  0.21003945439E+03  0.79727325913E+02 0.  0.
          2    1    6    6  501    0 -0.33767422751E+02 -0.53531406162E+02  0.20411282253E+02  0.66501659589E+02  0.00000000000E+00 0. -1.
         -1    1    6    6    0  501 -0.12122680292E+03 -0.13634465750E+02  0.75639025217E+02  0.14353779480E+03  0.00000000000E+00 0.  1.
          5    1    5    5  502    0  0.36000664558E+02 -0.15096279397E+02  0.16634056672E+02  0.42693410986E+02  0.47000000000E+01 0. -1.
         13    1    4    4    0    0  0.67140460940E+01  0.16506078605E+01  0.27358491692E+02  0.28218610684E+02  0.00000000000E+00 0. -1.
        -14    1    4    4    0    0  0.23979825781E+02 -0.20023523968E+02 -0.59762215433E+02  0.67435124009E+02  0.00000000000E+00 0.  1.
         -5    1    3    3    0  504  0.88299689232E+02  0.10063506742E+03 -0.84570116205E+02  0.15842489220E+03  0.47000000000E+01 0.  1.
<mgrwt>
<rscale>  2 0.22605353E+03</rscale>
<asrwt>0</asrwt>
<pdfrwt beam="1">  1       21 0.38655540E-01 0.22622143E+03</pdfrwt>
<pdfrwt beam="2">  1       21 0.39315459E-01 0.22622143E+03</pdfrwt>
<totfact> 0.39586680E+04</totfact>
</mgrwt>
</event>
<event>
12    1  0.2791583E-001  0.1769793E+03  0.7546771E-02  0.1170780E+00
         21   -1    0    0  502  503  0.00000000000E+00  0.00000000000E+00  0.60293647899E+03  0.60293647899E+03  0.00000000000E+00 0. -1.
         21   -1    0    0  503  504 -0.00000000000E+00 -0.00000000000E+00 -0.95730952861E+02  0.95730952861E+02  0.00000000000E+00 0.  1.
         -6    2    1    2    0  504 -0.16261490246E+02 -0.30738248358E+02  0.17258242563E+02  0.17773557080E+03  0.17344396852E+03 0.  0.
        -24    2    3    3    0    0  0.11964121820E+02 -0.11060476480E+02  0.74539830602E+02  0.11074922734E+03  0.80272851320E+02 0.  0.
          6    2    1    2  502    0  0.16261490246E+02  0.30738248358E+02  0.48994728356E+03  0.52093186104E+03  0.17352921138E+03 0.  0.
         24    2    5    5    0    0 -0.25642773861E+02 -0.37157474296E+02  0.17520071235E+03  0.19619613681E+03  0.75890742143E+02 0.  0.
          2    1    6    6  501    0  0.16751583137E+02 -0.15137895717E+02  0.12451584703E+03  0.12654630609E+03  0.00000000000E+00 0. -1.
         -1    1    6    6    0  501 -0.42394356998E+02 -0.22019578579E+02  0.50684865323E+02  0.69649830717E+02  0.00000000000E+00 0.  1.
          5    1    5    5  502    0  0.41904264108E+02  0.67895722654E+02  0.31474657121E+03  0.32473572423E+03  0.47000000000E+01 0. -1.
         11    1    4    4    0    0  0.31002154383E+02  0.25655735116E+02  0.41576637339E+02  0.57861620209E+02  0.00000000000E+00 0. -1.
        -12    1    4    4    0    0 -0.19038032563E+02 -0.36716211596E+02  0.32963193263E+02  0.52887607130E+02  0.00000000000E+00 0.  1.
         -5    1    3    3    0  504 -0.28225612067E+02 -0.19677771878E+02 -0.57281588039E+02  0.66986343466E+02  0.47000000000E+01 0.  1.
<mgrwt>
<rscale>  2 0.17695837E+03</rscale>
<asrwt>0</asrwt>
<pdfrwt beam="1">  1       21 0.92759456E-01 0.17697927E+03</pdfrwt>
<pdfrwt beam="2">  1       21 0.14727839E-01 0.17697927E+03</pdfrwt>
<totfact> 0.40051978E+04</totfact>
</mgrwt>
</event>
<event>
12    1  0.2791583E-001  0.1744450E+03  0.7546771E-02  0.1173466E+00
         21   -1    0    0  502  503  0.00000000000E+00  0.00000000000E+00  0.13600160643E+03  0.13600160643E+03  0.00000000000E+00 0. -1.
         21   -1    0    0  503  504 -0.00000000000E+00 -0.00000000000E+00 -0.22354554061E+03  0.22354554061E+03  0.00000000000E+00 0. -1.
         -6    2    1    2    0  504 -0.20561740292E+02 -0.75674670308E+01 -0.33746636603E+02  0.17699519862E+03  0.17236128664E+03 0.  0.
        -24    2    3    3    0    0 -0.14803820958E+02  0.58395338734E+02  0.30051664761E+01  0.10112010120E+03  0.81160798049E+02 0.  0.
          6    2    1    2  502    0  0.20561740292E+02  0.75674670308E+01 -0.53797297570E+02  0.18255194842E+03  0.17306360947E+03 0.  0.
         24    2    5    5    0    0 -0.29303743801E+02  0.26663261576E+02 -0.81685504041E+02  0.12212796366E+03  0.81688916138E+02 0.  0.
          4    1    6    6  501    0 -0.52579308039E+02  0.95639242123E+01 -0.26072958876E+02  0.59463026031E+02  0.00000000000E+00 0. -1.
         -3    1    6    6    0  501  0.23275564238E+02  0.17099337364E+02 -0.55612545165E+02  0.62664937633E+02  0.00000000000E+00 0.  1.
          5    1    5    5  502    0  0.49865484093E+02 -0.19095794545E+02  0.27888206471E+02  0.60423984752E+02  0.47000000000E+01 0. -1.
         13    1    4    4    0    0 -0.99202660598E+01  0.23291648781E+02 -0.38790321809E+02  0.46320639543E+02  0.00000000000E+00 0. -1.
        -14    1    4    4    0    0 -0.48835548983E+01  0.35103689953E+02  0.41795488285E+02  0.54799461655E+02  0.00000000000E+00 0.  1.
         -5    1    3    3    0  504 -0.57579193340E+01 -0.65962805765E+02 -0.36751803079E+02  0.75875097423E+02  0.47000000000E+01 0.  1.
<mgrwt>
<rscale>  2 0.17427057E+03</rscale>
<asrwt>0</asrwt>
<pdfrwt beam="1">  1       21 0.20923324E-01 0.17444502E+03</pdfrwt>
<pdfrwt beam="2">  1       21 0.34391621E-01 0.17444502E+03</pdfrwt>
<totfact> 0.17380130E+05</totfact>
</mgrwt>
</event>
<event>
12    1  0.2791583E-001  0.2066019E+03  0.7546771E-02  0.1144616E+00
         21   -1    0    0  502  503  0.00000000000E+00  0.00000000000E+00  0.92850853786E+02  0.92850853786E+02  0.00000000000E+00 0.  1.
         21   -1    0    0  503  504 -0.00000000000E+00 -0.00000000000E+00 -0.47466157812E+03  0.47466157812E+03  0.00000000000E+00 0. -1.
         -6    2    1    2    0  504 -0.10501914640E+03  0.40709461473E+02 -0.24629994819E+03  0.32043451764E+03  0.17125517293E+03 0.  0.
        -24    2    3    3    0    0 -0.96790904272E+02  0.80776938192E+02 -0.23340781236E+03  0.27729052819E+03  0.80730646361E+02 0.  0.
          6    2    1    2  502    0  0.10501914640E+03 -0.40709461473E+02 -0.13551077615E+03  0.24707791426E+03  0.17319943389E+03 0.  0.
         24    2    5    5    0    0  0.91417159499E+02 -0.33364571613E+02 -0.23423784811E+02  0.13383240627E+03  0.88837759895E+02 0.  0.
          4    1    6    6  501    0  0.77363100770E+02 -0.16522535910E+02 -0.54304908267E+02  0.95953460675E+02  0.00000000000E+00 0. -1.
         -3    1    6    6    0  501  0.14054058729E+02 -0.16842035703E+02  0.30881123456E+02  0.37878945594E+02  0.00000000000E+00 0.  1.
          5    1    5    5  502    0  0.13601986904E+02 -0.73448898593E+01 -0.11208699133E+03  0.11324550800E+03  0.47000000000E+01 0. -1.
         11    1    4    4    0    0 -0.67656017943E+01  0.37819242451E+02 -0.12125775600E+03  0.12719871013E+03  0.00000000000E+00 0. -1.
        -12    1    4    4    0    0 -0.90025302477E+02  0.42957695741E+02 -0.11215005636E+03  0.15009181807E+03  0.00000000000E+00 0.  1.
         -5    1    3    3    0  504 -0.82282421316E+01 -0.40067476719E+02 -0.12892135827E+02  0.43143989447E+02  0.47000000000E+01 0.  1.
<mgrwt>
<rscale>  2 0.20619385E+03</rscale>
<asrwt>0</asrwt>
<pdfrwt beam="1">  1       21 0.14284747E-01 0.20660185E+03</pdfrwt>
<pdfrwt beam="2">  1       21 0.73024859E-01 0.20660185E+03</pdfrwt>
<totfact> 0.71881280E+04</totfact>
</mgrwt>
</event>
<event>
12    1  0.2791583E-001  0.1743952E+03  0.7546771E-02  0.1173794E+00
         21   -1    0    0  502  503  0.00000000000E+00  0.00000000000E+00  0.21123352424E+03  0.21123352424E+03  0.00000000000E+00 0.  1.
         21   -1    0    0  503  504 -0.00000000000E+00 -0.00000000000E+00 -0.23028295996E+03  0.23028295996E+03  0.00000000000E+00 0.  1.
         -6    2    1    2    0  504 -0.49188275537E+01  0.53095991716E+00 -0.14578517011E+03  0.22593439155E+03  0.17253566784E+03 0.  0.
        -24    2    3    3    0    0 -0.46954186816E+02  0.40113317701E+02 -0.47458834669E+02  0.11181212064E+03  0.80223658710E+02 0.  0.
          6    2    1    2  502    0  0.49188275537E+01 -0.53095991716E+00  0.12673573440E+03  0.21558209266E+03  0.17432502838E+03 0.  0.
         24    2    5    5    0    0  0.55107356946E+02 -0.44519471074E+02  0.90614736348E+02  0.13955121672E+03  0.79023462019E+02 0.  0.
          2    1    6    6  501    0  0.64823848459E+02 -0.52979402757E+02  0.51317245382E+02  0.98195764263E+02  0.00000000000E+00 0. -1.
         -1    1    6    6    0  501 -0.97164915132E+01  0.84599316835E+01  0.39297490966E+02  0.41355452454E+02  0.00000000000E+00 0.  1.
          5    1    5    5  502    0 -0.50188529392E+02  0.43988511157E+02  0.36120998049E+02  0.76030875941E+02  0.47000000000E+01 0. -1.
         11    1    4    4    0    0  0.20908750624E+02  0.20677839431E+02 -0.62178629709E+01  0.30056791514E+02  0.00000000000E+00 0. -1.
        -12    1    4    4    0    0 -0.67862937439E+02  0.19435478270E+02 -0.41240971698E+02  0.81755329123E+02  0.00000000000E+00 0.  1.
         -5    1    3    3    0  504  0.42035359262E+02 -0.39582357784E+02 -0.98326335442E+02  0.11412227091E+03  0.47000000000E+01 0.  1.
<mgrwt>
<rscale>  2 0.17394633E+03</rscale>
<asrwt>0</asrwt>
<pdfrwt beam="1">  1       21 0.32497465E-01 0.17439522E+03</pdfrwt>
<pdfrwt beam="2">  1       21 0.35428148E-01 0.17439522E+03</pdfrwt>
<totfact> 0.70541983E+04</totfact>
</mgrwt>
</event>
<event>
12    1  0.2791583E-001  0.1857200E+03  0.7546771E-02  0.1162591E+00
         21   -1    0    0  502  503  0.00000000000E+00  0.00000000000E+00  0.10123597662E+03  0.10123597662E+03  0.00000000000E+00 0. -1.
         21   -1    0    0  503  504 -0.00000000000E+00 -0.00000000000E+00 -0.35328013588E+03  0.35328013588E+03  0.00000000000E+00 0. -1.
         -6    2    1    2    0  504  0.51681377324E+02  0.41066509698E+02 -0.17134431057E+03  0.25202073859E+03  0.17262142663E+03 0.  0.
        -24    2    3    3    0    0  0.46294005084E+01  0.69633998758E+02 -0.16503949357E+03  0.19641650610E+03  0.80443050029E+02 0.  0.
          6    2    1    2  502    0 -0.51681377324E+02 -0.41066509698E+02 -0.80699848683E+02  0.20249537391E+03  0.17359287974E+03 0.  0.
         24    2    5    5    0    0 -0.13540900456E+02 -0.73266336896E+02 -0.61838556837E+01  0.11268308043E+03  0.84308507500E+02 0.  0.
          2    1    6    6  501    0 -0.46352651374E+02 -0.22916272447E+02  0.34278464728E+01  0.51821558870E+02  0.00000000000E+00 0. -1.
         -1    1    6    6    0  501  0.32811750918E+02 -0.50350064449E+02 -0.96117021565E+01  0.60861521560E+02  0.00000000000E+00 0.  1.
          5    1    5    5  502    0 -0.38140476868E+02  0.32199827198E+02 -0.74515993000E+02  0.89812293480E+02  0.47000000000E+01 0. -1.
         13    1    4    4    0    0  0.36141503346E+02  0.79457354507E+01 -0.51549477415E+02  0.63456217960E+02  0.00000000000E+00 0. -1.
        -14    1    4    4    0    0 -0.31512102838E+02  0.61688263307E+02 -0.11349001615E+03  0.13296028814E+03  0.00000000000E+00 0.  1.
         -5    1    3    3    0  504  0.47051976816E+02 -0.28567489060E+02 -0.63048170052E+01  0.55604232491E+02  0.47000000000E+01 0.  1.
<mgrwt>
<rscale>  2 0.18549264E+03</rscale>
<asrwt>0</asrwt>
<pdfrwt beam="1">  1       21 0.15574765E-01 0.18571998E+03</pdfrwt>
<pdfrwt beam="2">  1       21 0.54350791E-01 0.18571998E+03</pdfrwt>
<totfact> 0.11744567E+05</totfact>
</mgrwt>
</event>
<event>
12    1  0.2791583E-001  0.6311754E+03  0.7546771E-02  0.9842817E-01
         21   -1    0    0  502  503  0.00000000000E+00  0.00000000000E+00  0.34497645028E+03  0.34497645028E+03  0.00000000000E+00 0.  1.
         21   -1    0    0  503  504 -0.00000000000E+00 -0.00000000000E+00 -0.15613780361E+04  0.15613780361E+04  0.00000000000E+00 0. -1.
         -6    2    1    2    0  504  0.42116681019E+03 -0.43720265542E+03 -0.10947691721E+04  0.12636858423E+04  0.17278519557E+03 0.  0.
        -24    2    3    3    0    0  0.21254757729E+03 -0.26325933084E+03 -0.48672059479E+03  0.59771029699E+03  0.76672771290E+02 0.  0.
          6    2    1    2  502    0 -0.42116681019E+03  0.43720265542E+03 -0.12163241369E+03  0.64266864410E+03  0.17233948514E+03 0.  0.
         24    2    5    5    0    0 -0.32897087143E+03  0.40079560126E+03 -0.14181877615E+03  0.54140095949E+03  0.64369910941E+02 0.  0.
          4    1    6    6  501    0 -0.22562814208E+03  0.22668031035E+03 -0.93958058029E+02  0.33334687379E+03  0.00000000000E+00 0. -1.
         -3    1    6    6    0  501 -0.10334272935E+03  0.17411529091E+03 -0.47860718122E+02  0.20805408570E+03  0.00000000000E+00 0.  1.
          5    1    5    5  502    0 -0.92195938760E+02  0.36407054163E+02  0.20186362461E+02  0.10126768461E+03  0.47000000000E+01 0. -1.
         11    1    4    4    0    0  0.14820225089E+03 -0.14912164040E+03 -0.35038062979E+03  0.40861688234E+03  0.00000000000E+00 0. -1.
        -12    1    4    4    0    0  0.64345326399E+02 -0.11413769045E+03 -0.13633996500E+03  0.18909341466E+03  0.00000000000E+00 0.  1.
         -5    1    3    3    0  504  0.20861923290E+03 -0.17394332458E+03 -0.60804857736E+03  0.66597554529E+03  0.47000000000E+01 0.  1.
<mgrwt>
<rscale>  2 0.63114492E+03</rscale>
<asrwt>0</asrwt>
<pdfrwt beam="1">  1       21 0.53073300E-01 0.63117539E+03</pdfrwt>
<pdfrwt beam="2">  1       21 0.24021200E+00 0.63117539E+03</pdfrwt>
<totfact> 0.18755362E+02</totfact>
</mgrwt>
</event>
<event>
12    1  0.2791583E-001  0.3144912E+03  0.7546771E-02  0.1078271E+00
         21   -1    0    0  502  503  0.00000000000E+00  0.00000000000E+00  0.25953394062E+03  0.25953394062E+03  0.00000000000E+00 0.  1.
         21   -1    0    0  503  504 -0.00000000000E+00 -0.00000000000E+00 -0.38516760614E+03  0.38516760614E+03  0.00000000000E+00 0. -1.
         -6    2    1    2    0  504 -0.26235758560E+03  0.20063115210E+01 -0.27233661662E+02  0.31517567451E+03  0.17250653747E+03 0.  0.
        -24    2    3    3    0    0 -0.24758647083E+03  0.11699398855E+02  0.23162836855E+02  0.26156561169E+03  0.80275249812E+02 0.  0.
          6    2    1    2  502    0  0.26235758560E+03 -0.20063115210E+01 -0.98400003850E+02  0.32952587225E+03  0.17340476266E+03 0.  0.
         24    2    5    5    0    0  0.26697386781E+03  0.29262008402E+02 -0.83306179740E+02  0.29418564844E+03  0.86452096212E+02 0.  0.
          4    1    6    6  501    0  0.22360888243E+03 -0.65575798611E+01 -0.80915930741E+02  0.23788930619E+03  0.00000000000E+00 0. -1.
         -3    1    6    6    0  501  0.43364985381E+02  0.35819588263E+02 -0.23902489991E+01  0.56296342250E+02  0.00000000000E+00 0.  1.
          5    1    5    5  502    0 -0.46162822078E+01 -0.31268319923E+02 -0.15093824110E+02  0.35340223803E+02  0.47000000000E+01 0. -1.
         11    1    4    4    0    0 -0.66778779558E+02 -0.11759353234E+01 -0.29192933341E+02  0.72890435451E+02  0.00000000000E+00 0. -1.
        -12    1    4    4    0    0 -0.18080769128E+03  0.12875334178E+02  0.52355770197E+02  0.18867517624E+03  0.00000000000E+00 0.  1.
         -5    1    3    3    0  504 -0.14771114765E+02 -0.96930873340E+01 -0.50396498518E+02  0.53610062827E+02  0.47000000000E+01 0.  1.
<mgrwt>
<rscale>  2 0.31436757E+03</rscale>
<asrwt>0</asrwt>
<pdfrwt beam="1">  1       21 0.39928299E-01 0.31449124E+03</pdfrwt>
<pdfrwt beam="2">  1       21 0.59256555E-01 0.31449124E+03</pdfrwt>
<totfact> 0.15125419E+04</totfact>
</mgrwt>
</event>
<event>
12    1  0.2791583E-001  0.1784843E+03  0.7546771E-02  0.1169283E+00
         21   -1    0    0  502  503  0.00000000000E+00  0.00000000000E+00  0.16287185958E+03  0.16287185958E+03  0.00000000000E+00 0.  1.
         21   -1    0    0  503  504 -0.00000000000E+00 -0.00000000000E+00 -0.35133585838E+03  0.35133585838E+03  0.00000000000E+00 0.  1.
         -6    2    1    2    0  504  0.72348052747E+00  0.46653656500E+02 -0.26541972970E+03  0.31983991858E+03  0.17225810146E+03 0.  0.
        -24    2    3    3    0    0 -0.27720770785E+02  0.65371461194E+02 -0.89779180418E+02  0.14086750676E+03  0.82106541466E+02 0.  0.
          6    2    1    2  502    0 -0.72348052747E+00 -0.46653656500E+02  0.76955730888E+02  0.19436779937E+03  0.17227759526E+03 0.  0.
         24    2    5    5    0    0 -0.11089674867E+02 -0.23555498878E+02  0.11863881476E+03  0.14537236742E+03  0.79875618471E+02 0.  0.
          2    1    6    6  501    0 -0.16611499768E+02  0.22868829335E+02  0.15743597693E+02  0.32354074674E+02  0.00000000000E+00 0. -1.
         -1    1    6    6    0  501  0.55218249011E+01 -0.46424328212E+02  0.10289521707E+03  0.11301829275E+03  0.00000000000E+00 0.  1.
          5    1    5    5  502    0  0.10366194340E+02 -0.23098157622E+02 -0.41683083875E+02  0.48995431950E+02  0.47000000000E+01 0. -1.
         11    1    4    4    0    0 -0.52558476429E+02  0.33358816270E+02 -0.75619420271E+02  0.97946417951E+02  0.00000000000E+00 0. -1.
        -12    1    4    4    0    0  0.24837705644E+02  0.32012644924E+02 -0.14159760147E+02  0.42921088804E+02  0.00000000000E+00 0.  1.
         -5    1    3    3    0  504  0.28444251312E+02 -0.18717804694E+02 -0.17564054928E+03  0.17897241183E+03  0.47000000000E+01 0.  1.
<mgrwt>
<rscale>  2 0.17847963E+03</rscale>
<asrwt>0</asrwt>
<pdfrwt beam="1">  1       21 0.25057209E-01 0.17848433E+03</pdfrwt>
<pdfrwt beam="2">  1       21 0.54051670E-01 0.17848433E+03</pdfrwt>
<totfact> 0.49130724E+04</totfact>
</mgrwt>
</event>
<event>
12    1  0.2791583E-001  0.2054908E+03  0.7546771E-02  0.1146710E+00
         21   -1    0    0  502  503  0.00000000000E+00  0.00000000000E+00  0.48988950946E+03  0.48988950946E+03  0.00000000000E+00 0. -1.
         21   -1    0    0  503  504 -0.00000000000E+00 -0.00000000000E+00 -0.84013651384E+02  0.84013651384E+02  0.00000000000E+00 0. -1.
         -6    2    1    2    0  504 -0.51589274610E+02  0.82006934866E+02  0.17016359293E+03  0.26119445492E+03  0.17285920370E+03 0.  0.
        -24    2    3    3    0    0  0.23966884897E+02  0.80013114747E+02  0.14866688658E+03  0.18247401957E+03  0.64949322937E+02 0.  0.
          6    2    1    2  502    0  0.51589274610E+02 -0.82006934866E+02  0.23571226515E+03  0.31270870592E+03  0.18121774802E+03 0.  0.
         24    2    5    5    0    0 -0.43205178728E+02 -0.52223432329E+02  0.11979967978E+03  0.15996426951E+03  0.81502330595E+02 0.  0.
          4    1    6    6  501    0 -0.52935859350E+02 -0.10576591867E+02  0.98179995419E+02  0.11204187164E+03  0.00000000000E+00 0. -1.
         -3    1    6    6    0  501  0.97306806215E+01 -0.41646840462E+02  0.21619684360E+02  0.47922397870E+02  0.00000000000E+00 0.  1.
          5    1    5    5  502    0  0.94794453338E+02 -0.29783502537E+02  0.11591258537E+03  0.15274443641E+03  0.47000000000E+01 0. -1.
         13    1    4    4    0    0  0.60719725403E+01  0.82900598543E+02  0.13893032698E+03  0.16189815887E+03  0.00000000000E+00 0. -1.
        -14    1    4    4    0    0  0.17894912357E+02 -0.28874837960E+01  0.97365595986E+01  0.20575860705E+02  0.00000000000E+00 0.  1.
         -5    1    3    3    0  504 -0.75556159507E+02  0.19938201188E+01  0.21496706347E+02  0.78720435351E+02  0.47000000000E+01 0.  1.
<mgrwt>
<rscale>  2 0.20363273E+03</rscale>
<asrwt>0</asrwt>
<pdfrwt beam="1">  1       21 0.75367615E-01 0.20549079E+03</pdfrwt>
<pdfrwt beam="2">  1       21 0.12925177E-01 0.20549079E+03</pdfrwt>
<totfact> 0.80318945E+04</totfact>
</mgrwt>
</event>
<event>
12    1  0.2791583E-001  0.2038591E+03  0.7546771E-02  0.1147040E+00
         21   -1    0    0  502  503  0.00000000000E+00  0.00000000000E+00  0.11111171346E+04  0.11111171346E+04  0.00000000000E+00 0.  1.
         21   -1    0    0  503  504 -0.00000000000E+00 -0.00000000000E+00 -0.46129307191E+02  0.46129307191E+02  0.00000000000E+00 0.  1.
         -6    2    1    2    0  504  0.27979427751E+02  0.10577744803E+03  0.27171293840E+03  0.33819603805E+03  0.16904710104E+03 0.  0.
        -24    2    3    3    0    0  0.53786445638E+02  0.45101092019E+01  0.11517810289E+03  0.14992410490E+03  0.79359429329E+02 0.  0.
          6    2    1    2  502    0 -0.27979427751E+02 -0.10577744803E+03  0.79327488901E+03  0.81905040375E+03  0.17200813193E+03 0.  0.
         24    2    5    5    0    0 -0.29457932398E+02 -0.11157238842E+03  0.37094446381E+03  0.39665148642E+03  0.80102676651E+02 0.  0.
          2    1    6    6  501    0 -0.23566917076E+02 -0.85886934531E+02  0.15233475817E+03  0.17645918409E+03  0.00000000000E+00 0. -1.
         -1    1    6    6    0  501 -0.58910153219E+01 -0.25685453887E+02  0.21860970564E+03  0.22019230233E+03  0.00000000000E+00 0.  1.
          5    1    5    5  502    0  0.14785046468E+01  0.57949403852E+01  0.42233042520E+03  0.42239891733E+03  0.47000000000E+01 0. -1.
         13    1    4    4    0    0  0.42879551736E+02  0.30500600443E+01  0.12681812548E+03  0.13390592135E+03  0.00000000000E+00 0. -1.
        -14    1    4    4    0    0  0.10906893903E+02  0.14600491577E+01 -0.11640022588E+02  0.16018183542E+02  0.00000000000E+00 0.  1.
         -5    1    3    3    0  504 -0.25807017888E+02  0.10126733883E+03  0.15653483551E+03  0.18827193316E+03  0.47000000000E+01 0.  1.
<mgrwt>
<rscale>  2 0.20323315E+03</rscale>
<asrwt>0</asrwt>
<pdfrwt beam="1">  1       21 0.17094108E+00 0.20385906E+03</pdfrwt>
<pdfrwt beam="2">  1       21 0.70968173E-02 0.20385906E+03</pdfrwt>
<totfact> 0.30817519E+04</totfact>
</mgrwt>
</event>
<event>
12    1  0.2791583E-001  0.1780900E+03  0.7546771E-02  0.1170500E+00
         21   -1    0    0  502  503  0.00000000000E+00  0.00000000000E+00  0.47910578348E+03  0.47910578348E+03  0.00000000000E+00 0. -1.
         21   -1    0    0  503  504 -0.00000000000E+00 -0.00000000000E+00 -0.12486899312E+03  0.12486899312E+03  0.00000000000E+00 0. -1.
         -6    2    1    2    0  504 -0.30470396339E+02 -0.93123554513E+01 -0.32944706102E+02  0.17779926149E+03  0.17179074104E+03 0.  0.
        -24    2    3    3    0    0 -0.25019755695E+02  0.29875149109E+02 -0.76997259270E+02  0.11840155583E+03  0.81066872260E+02 0.  0.
          6    2    1    2  502    0  0.30470396339E+02  0.93123554513E+01  0.38718149647E+03  0.42617551511E+03  0.17521670427E+03 0.  0.
         24    2    5    5    0    0 -0.59629533340E+00 -0.10074878143E+02  0.37928702210E+03  0.38842082158E+03  0.83127797787E+02 0.  0.
          2    1    6    6  501    0  0.22754623121E+02 -0.23949455986E+02  0.33387652668E+03  0.33550690661E+03  0.00000000000E+00 0. -1.
         -1    1    6    6    0  501 -0.23350918455E+02  0.13874577844E+02  0.45410495421E+02  0.52913914969E+02  0.00000000000E+00 0.  1.
          5    1    5    5  502    0  0.31066691672E+02  0.19387233594E+02  0.78944743658E+01  0.37754693528E+02  0.47000000000E+01 0. -1.
         13    1    4    4    0    0 -0.31683904528E+02 -0.16295297285E+02 -0.57923259436E+02  0.68003753598E+02  0.00000000000E+00 0. -1.
        -14    1    4    4    0    0  0.66641488326E+01  0.46170446394E+02 -0.19073999834E+02  0.50397802229E+02  0.00000000000E+00 0.  1.
         -5    1    3    3    0  504 -0.54506406433E+01 -0.39187504560E+02  0.44052553168E+02  0.59397705660E+02  0.47000000000E+01 0.  1.
<mgrwt>
<rscale>  2 0.17724158E+03</rscale>
<asrwt>0</asrwt>
<pdfrwt beam="1">  1       21 0.73708581E-01 0.17809003E+03</pdfrwt>
<pdfrwt beam="2">  1       21 0.19210614E-01 0.17809003E+03</pdfrwt>
<totfact> 0.41428424E+04</totfact>
</mgrwt>
</event>
<event>
12    1  0.2791583E-001  0.6803917E+03  0.7546771E-02  0.9751519E-01
         21   -1    0    0  502  503  0.00000000000E+00  0.00000000000E+00  0.26589843068E+04  0.26589843068E+04  0.00000000000E+00 0.  1.
         21   -1    0    0  503  504 -0.00000000000E+00 -0.00000000000E+00 -0.26259066569E+03  0.26259066569E+03  0.00000000000E+00 0. -1.
         -6    2    1    2    0  504  0.25289377674E+03  0.60743211432E+03  0.34957555892E+03  0.76463334414E+03  0.17184889804E+03 0.  0.
        -24    2    3    3    0    0  0.11967713062E+03  0.39259427550E+03  0.15634831312E+03  0.44641827487E+03  0.79947485094E+02 0.  0.
          6    2    1    2  502    0 -0.25289377674E+03 -0.60743211432E+03  0.20468180822E+04  0.21569416283E+04  0.17321631183E+03 0.  0.
         24    2    5    5    0    0 -0.22967889589E+03 -0.58989666931E+03  0.20147978182E+04  0.21134237030E+04  0.80118813169E+02 0.  0.
          2    1    6    6  501    0 -0.61640711327E+02 -0.19830181633E+03  0.77981948791E+03  0.80699542834E+03  0.00000000000E+00 0. -1.
         -1    1    6    6    0  501 -0.16803818456E+03 -0.39159485298E+03  0.12349783303E+04  0.13064282746E+04  0.00000000000E+00 0.  1.
          5    1    5    5  502    0 -0.23214880854E+02 -0.17535445013E+02  0.32020263928E+02  0.43517925352E+02  0.47000000000E+01 0. -1.
         13    1    4    4    0    0  0.71165777999E+02  0.20795076494E+03  0.41649771698E+02  0.22370246329E+03  0.00000000000E+00 0. -1.
        -14    1    4    4    0    0  0.48511352616E+02  0.18464351056E+03  0.11469854142E+03  0.22271581158E+03  0.00000000000E+00 0.  1.
         -5    1    3    3    0  504  0.13321664613E+03  0.21483783882E+03  0.19322724580E+03  0.31821506927E+03  0.47000000000E+01 0.  1.
<mgrwt>
<rscale>  2 0.68030502E+03</rscale>
<asrwt>0</asrwt>
<pdfrwt beam="1">  1       21 0.40907449E+00 0.68039174E+03</pdfrwt>
<pdfrwt beam="2">  1       21 0.40398566E-01 0.68039174E+03</pdfrwt>
<totfact> 0.28964512E+01</totfact>
</mgrwt>
</event>
<event>
12    1  0.2791583E-001  0.1795508E+03  0.7546771E-02  0.1168685E+00
         21   -1    0    0  502  503  0.00000000000E+00  0.00000000000E+00  0.24332230914E+03  0.24332230914E+03  0.00000000000E+00 0.  1.
         21   -1    0    0  503  504 -0.00000000000E+00 -0.00000000000E+00 -0.13428103877E+03  0.13428103877E+03  0.00000000000E+00 0.  1.
         -6    2    1    2    0  504 -0.29863886633E+02  0.31042651984E+02  0.25409263278E+02  0.17953064450E+03  0.17242425493E+03 0.  0.
        -24    2    3    3    0    0  0.35841214980E+02 -0.60565231709E+01  0.46713741350E+02  0.10098460729E+03  0.81819576596E+02 0.  0.
          6    2    1    2  502    0  0.29863886633E+02 -0.31042651984E+02  0.83632007099E+02  0.19807270341E+03  0.17430715779E+03 0.  0.
         24    2    5    5    0    0  0.19629236736E+02  0.23241864647E+02  0.10743445473E+03  0.13773860594E+03  0.80649056399E+02 0.  0.
          4    1    6    6  501    0  0.30324952523E+02  0.18264057907E+02  0.63465901597E+01  0.35964673826E+02  0.00000000000E+00 0. -1.
         -3    1    6    6    0  501 -0.10695715787E+02  0.49778067396E+01  0.10108786457E+03  0.10177393212E+03  0.00000000000E+00 0.  1.
          5    1    5    5  502    0  0.10234649897E+02 -0.54284516631E+02 -0.23802447626E+02  0.60334097469E+02  0.47000000000E+01 0. -1.
         13    1    4    4    0    0  0.14641439256E+02  0.72628792113E+01  0.66872630210E+02  0.68840902298E+02  0.00000000000E+00 0. -1.
        -14    1    4    4    0    0  0.21199775724E+02 -0.13319402382E+02 -0.20158888860E+02  0.32143704992E+02  0.00000000000E+00 0.  1.
         -5    1    3    3    0  504 -0.65705101613E+02  0.37099175155E+02 -0.21304478072E+02  0.78546037208E+02  0.47000000000E+01 0.  1.
<mgrwt>
<rscale>  2 0.17909219E+03</rscale>
<asrwt>0</asrwt>
<pdfrwt beam="1">  1       21 0.37434201E-01 0.17955078E+03</pdfrwt>
<pdfrwt beam="2">  1       21 0.20658621E-01 0.17955078E+03</pdfrwt>
<totfact> 0.15015472E+05</totfact>
</mgrwt>
</event>
<event>
12    1  0.2791583E-001  0.1747668E+03  0.7546771E-02  0.1173017E+00
         21   -1    0    0  502  503  0.00000000000E+00  0.00000000000E+00  0.44363239257E+03  0.44363239257E+03  0.00000000000E+00 0. -1.
         21   -1    0    0  503  504 -0.00000000000E+00 -0.00000000000E+00 -0.89290173147E+02  0.89290173147E+02  0.00000000000E+00 0. -1.
         -6    2    1    2    0  504  0.21147743478E+02 -0.12018766401E+02  0.49347301024E+02  0.18140396742E+03  0.17285995915E+03 0.  0.
        -24    2    3    3    0    0 -0.11651509057E+02 -0.69719509702E+02  0.38189053494E+02  0.11393721092E+03  0.80788096458E+02 0.  0.
          6    2    1    2  502    0 -0.21147743478E+02  0.12018766401E+02  0.30499491840E+03  0.35151859830E+03  0.17306573000E+03 0.  0.
         24    2    5    5    0    0 -0.72008636353E+01  0.59776899731E+02  0.27017019930E+03  0.29060713947E+03  0.88518036251E+02 0.  0.
          4    1    6    6  501    0 -0.47325202638E+02  0.38985598765E+02  0.16983908656E+03  0.18056817837E+03  0.00000000000E+00 0. -1.
         -3    1    6    6    0  501  0.40124339003E+02  0.20791300966E+02  0.10033111274E+03  0.11003896110E+03  0.00000000000E+00 0.  1.
          5    1    5    5  502    0 -0.13946879843E+02 -0.47758133329E+02  0.34824719100E+02  0.60911458830E+02  0.47000000000E+01 0. -1.
         13    1    4    4    0    0  0.16674521537E+02  0.62356185500E+01 -0.91977955050E+01  0.20038015105E+02  0.00000000000E+00 0. -1.
        -14    1    4    4    0    0 -0.28326030594E+02 -0.75955128252E+02  0.47386848999E+02  0.93899195817E+02  0.00000000000E+00 0.  1.
         -5    1    3    3    0  504  0.32799252535E+02  0.57700743301E+02  0.11158247530E+02  0.67466756497E+02  0.47000000000E+01 0.  1.
<mgrwt>
<rscale>  2 0.17471581E+03</rscale>
<asrwt>0</asrwt>
<pdfrwt beam="1">  1       21 0.68251136E-01 0.17476677E+03</pdfrwt>
<pdfrwt beam="2">  1       21 0.13736950E-01 0.17476677E+03</pdfrwt>
<totfact> 0.90798784E+04</totfact>
</mgrwt>
</event>
<event>
12    1  0.2791583E-001  0.2144614E+03  0.7546771E-02  0.1138365E+00
         21   -1    0    0  502  503  0.00000000000E+00  0.00000000000E+00  0.41455518208E+03  0.41455518208E+03  0.00000000000E+00 0.  1.
         21   -1    0    0  503  504 -0.00000000000E+00 -0.00000000000E+00 -0.43227470865E+03  0.43227470865E+03  0.00000000000E+00 0.  1.
         -6    2    1    2    0  504 -0.12133758671E+03 -0.36117206508E+02 -0.37435412141E+03  0.43143330013E+03  0.17310812139E+03 0.  0.
        -24    2    3    3    0    0 -0.61015272402E+02  0.42825057218E+02 -0.22288784305E+03  0.25022958580E+03  0.85901141083E+02 0.  0.
          6    2    1    2  502    0  0.12133758671E+03  0.36117206508E+02  0.35663459484E+03  0.41539659060E+03  0.17128581580E+03 0.  0.
         24    2    5    5    0    0  0.11812753577E+02  0.37276427522E+02  0.92840868763E+02  0.12972850911E+03  0.81737298507E+02 0.  0.
          4    1    6    6  501    0  0.15533824934E+02  0.42602832402E+02  0.97484837169E+01  0.46382474929E+02  0.00000000000E+00 0. -1.
         -3    1    6    6    0  501 -0.37210713567E+01 -0.53264048800E+01  0.83092385046E+02  0.83346034181E+02  0.00000000000E+00 0.  1.
          5    1    5    5  502    0  0.10952483314E+03 -0.11592210144E+01  0.26379372608E+03  0.28566808149E+03  0.47000000000E+01 0. -1.
         13    1    4    4    0    0 -0.10841046404E+02  0.49852477258E+01  0.56545981660E+01  0.13204372853E+02  0.00000000000E+00 0. -1.
        -14    1    4    4    0    0 -0.50174225998E+02  0.37839809492E+02 -0.22854244121E+03  0.23702521295E+03  0.00000000000E+00 0.  1.
         -5    1    3    3    0  504 -0.60322314313E+02 -0.78942263726E+02 -0.15146627836E+03  0.18120371433E+03  0.47000000000E+01 0.  1.
<mgrwt>
<rscale>  2 0.21409338E+03</rscale>
<asrwt>0</asrwt>
<pdfrwt beam="1">  1       21 0.63777720E-01 0.21446138E+03</pdfrwt>
<pdfrwt beam="2">  1       21 0.66503801E-01 0.21446138E+03</pdfrwt>
<totfact> 0.46309116E+03</totfact>
</mgrwt>
</event>
<event>
12    1  0.2791583E-001  0.1934068E+03  0.7546771E-02  0.1155657E+00
         21   -1    0    0  502  503  0.00000000000E+00  0.00000000000E+00  0.67343878409E+03  0.67343878409E+03  0.00000000000E+00 0.  1.
         21   -1    0    0  503  504 -0.00000000000E+00 -0.00000000000E+00 -0.93160347853E+02  0.93160347853E+02  0.00000000000E+00 0. -1.
         -6    2    1    2    0  504  0.53820935688E+02 -0.66346818678E+02  0.46073118603E+02  0.19881879982E+03  0.17351538675E+03 0.  0.
        -24    2    3    3    0    0  0.10082380748E+03 -0.28221005524E+02  0.32483810063E+02  0.13661263541E+03  0.81522689660E+02 0.  0.
          6    2    1    2  502    0 -0.53820935688E+02  0.66346818678E+02  0.53420531764E+03  0.56778033212E+03  0.17233859314E+03 0.  0.
         24    2    5    5    0    0  0.13361018186E+02 -0.28840443899E+02  0.26594744534E+03  0.27527664679E+03  0.63552345145E+02 0.  0.
          2    1    6    6  501    0 -0.18747368390E+02 -0.31481211856E+02  0.10707569959E+03  0.11317126828E+03  0.00000000000E+00 0. -1.
         -1    1    6    6    0  501  0.32108386576E+02  0.26407679568E+01  0.15887174575E+03  0.16210537851E+03  0.00000000000E+00 0.  1.
          5    1    5    5  502    0 -0.67181953874E+02  0.95187262577E+02  0.26825787230E+03  0.29250368534E+03  0.47000000000E+01 0. -1.
         13    1    4    4    0    0  0.10057733788E+03 -0.25081167565E+02  0.52608238651E+02  0.11624324770E+03  0.00000000000E+00 0. -1.
        -14    1    4    4    0    0  0.24646959991E+00 -0.31398379585E+01 -0.20124428588E+02  0.20369387710E+02  0.00000000000E+00 0.  1.
         -5    1    3    3    0  504 -0.47002871789E+02 -0.38125813154E+02  0.13589308540E+02  0.62206164419E+02  0.47000000000E+01 0.  1.
<mgrwt>
<rscale>  2 0.19314247E+03</rscale>
<asrwt>0</asrwt>
<pdfrwt beam="1">  1       21 0.10360596E+00 0.19340678E+03</pdfrwt>
<pdfrwt beam="2">  1       21 0.14332362E-01 0.19340678E+03</pdfrwt>
<totfact> 0.32135699E+04</totfact>
</mgrwt>
</event>
<event>
12    1  0.2791583E-001  0.2377298E+03  0.7546771E-02  0.1123232E+00
         21   -1    0    0  502  503  0.00000000000E+00  0.00000000000E+00  0.55509230216E+03  0.55509230216E+03  0.00000000000E+00 0.  1.
         21   -1    0    0  503  504 -0.00000000000E+00 -0.00000000000E+00 -0.10003037391E+03  0.10003037391E+03  0.00000000000E+00 0. -1.
         -6    2    1    2    0  504 -0.13341602091E+03  0.74730689015E+02  0.28865532396E+03  0.37394834275E+03  0.18201911020E+03 0.  0.
        -24    2    3    3    0    0 -0.24213948122E+02  0.11170068537E+02  0.38017159700E+02  0.93223166534E+02  0.80834204593E+02 0.  0.
          6    2    1    2  502    0  0.13341602091E+03 -0.74730689015E+02  0.16640660428E+03  0.28117433331E+03  0.16728220841E+03 0.  0.
         24    2    5    5    0    0  0.41958608916E+02 -0.72344935503E+02  0.14684234992E+03  0.18749936293E+03  0.81234357352E+02 0.  0.
          4    1    6    6  501    0  0.31714519049E+01 -0.68676236961E+02  0.56054950742E+02  0.88705361355E+02  0.00000000000E+00 0. -1.
         -3    1    6    6    0  501  0.38787157011E+02 -0.36686985418E+01  0.90787399177E+02  0.98794001575E+02  0.00000000000E+00 0.  1.
          5    1    5    5  502    0  0.91457411991E+02 -0.23857535117E+01  0.19564254362E+02  0.93674970385E+02  0.47000000000E+01 0. -1.
         11    1    4    4    0    0  0.22450033602E+02  0.25771343283E+02  0.25805430064E+02  0.42826234532E+02  0.00000000000E+00 0. -1.
        -12    1    4    4    0    0 -0.46663981724E+02 -0.14601274746E+02  0.12211729636E+02  0.50396932003E+02  0.00000000000E+00 0.  1.
         -5    1    3    3    0  504 -0.10920207279E+03  0.63560620478E+02  0.25063816426E+03  0.28072517622E+03  0.47000000000E+01 0.  1.
<mgrwt>
<rscale>  2 0.23490874E+03</rscale>
<asrwt>0</asrwt>
<pdfrwt beam="1">  1       21 0.85398814E-01 0.23772982E+03</pdfrwt>
<pdfrwt beam="2">  1       21 0.15389289E-01 0.23772982E+03</pdfrwt>
<totfact> 0.43421239E+04</totfact>
</mgrwt>
</event>
<event>
12    1  0.2791583E-001  0.1848783E+03  0.7546771E-02  0.1163189E+00
         21   -1    0    0  502  503  0.00000000000E+00  0.00000000000E+00  0.27892162986E+03  0.27892162986E+03  0.00000000000E+00 0. -1.
         21   -1    0    0  503  504 -0.00000000000E+00 -0.00000000000E+00 -0.15274603564E+03  0.15274603564E+03  0.00000000000E+00 0. -1.
         -6    2    1    2    0  504 -0.20238460572E+02  0.61087714405E+02 -0.33016985588E+02  0.18769581424E+03  0.17320015360E+03 0.  0.
        -24    2    3    3    0    0  0.38500783847E+02  0.79517321200E+02 -0.38921409539E+02  0.12567241975E+03  0.80457232357E+02 0.  0.
          6    2    1    2  502    0  0.20238460572E+02 -0.61087714405E+02  0.15919257981E+03  0.24397185126E+03  0.17331671184E+03 0.  0.
         24    2    5    5    0    0  0.20344984908E+02  0.16595218511E+02  0.13911418664E+03  0.16359846458E+03  0.81990127460E+02 0.  0.
          2    1    6    6  501    0  0.27335761364E+02 -0.25906271635E+02  0.93805915277E+02  0.10108376972E+03  0.00000000000E+00 0. -1.
         -1    1    6    6    0  501 -0.69907764566E+01  0.42501490146E+02  0.45308271359E+02  0.62514694862E+02  0.00000000000E+00 0.  1.
          5    1    5    5  502    0 -0.10652433602E+00 -0.77682932916E+02  0.20078393173E+02  0.80373386679E+02  0.47000000000E+01 0. -1.
         11    1    4    4    0    0 -0.71402117356E+00  0.61931678539E+02  0.75266784430E+01  0.62391453912E+02  0.00000000000E+00 0. -1.
        -12    1    4    4    0    0  0.39214805021E+02  0.17585642661E+02 -0.46448087982E+02  0.63280965841E+02  0.00000000000E+00 0.  1.
         -5    1    3    3    0  504 -0.58739244419E+02 -0.18429606795E+02  0.59044239514E+01  0.62023394487E+02  0.47000000000E+01 0.  1.
<mgrwt>
<rscale>  2 0.18485098E+03</rscale>
<asrwt>0</asrwt>
<pdfrwt beam="1">  1       21 0.42911020E-01 0.18487830E+03</pdfrwt>
<pdfrwt beam="2">  1       21 0.23499390E-01 0.18487830E+03</pdfrwt>
<totfact> 0.89270279E+04</totfact>
</mgrwt>
</event>
<event>
12    1  0.2791583E-001  0.2140836E+03  0.7546771E-02  0.1138438E+00
         21   -1    0    0  502  503  0.00000000000E+00  0.00000000000E+00  0.25670515852E+03  0.25670515852E+03  0.00000000000E+00 0.  1.
         21   -1    0    0  503  504 -0.00000000000E+00 -0.00000000000E+00 -0.54536002704E+03  0.54536002704E+03  0.00000000000E+00 0.  1.
         -6    2    1    2    0  504  0.12306093884E+03  0.27211790030E+02 -0.47339397744E+03  0.51955139701E+03  0.17305294009E+03 0.  0.
        -24    2    3    3    0    0  0.22414395450E+01  0.33239001269E+02 -0.13589534568E+03  0.16099722380E+03  0.79641106459E+02 0.  0.
          6    2    1    2  502    0 -0.12306093884E+03 -0.27211790030E+02  0.18473910892E+03  0.28251378854E+03  0.17262973719E+03 0.  0.
         24    2    5    5    0    0 -0.86369230511E+02 -0.25144551816E+02  0.20657176296E+03  0.23951018734E+03  0.81248656116E+02 0.  0.
          2    1    6    6  501    0 -0.60096824568E+02  0.24450960473E+02  0.11777355313E+03  0.13446221629E+03  0.00000000000E+00 0. -1.
         -1    1    6    6    0  501 -0.26272405943E+02 -0.49595512289E+02  0.88798209828E+02  0.10504797105E+03  0.00000000000E+00 0.  1.
          5    1    5    5  502    0 -0.36691708330E+02 -0.20672382138E+01 -0.21832654036E+02  0.43003601201E+02  0.47000000000E+01 0. -1.
         11    1    4    4    0    0  0.42100060865E+01 -0.20886622588E+02 -0.81487372196E+02  0.84226878025E+02  0.00000000000E+00 0. -1.
        -12    1    4    4    0    0 -0.19685665415E+01  0.54125623857E+02 -0.54407973484E+02  0.76770345777E+02  0.00000000000E+00 0.  1.
         -5    1    3    3    0  504  0.12081949930E+03 -0.60272112387E+01 -0.33749863176E+03  0.35855417321E+03  0.47000000000E+01 0.  1.
<mgrwt>
<rscale>  2 0.21399808E+03</rscale>
<asrwt>0</asrwt>
<pdfrwt beam="1">  1       21 0.39493101E-01 0.21408362E+03</pdfrwt>
<pdfrwt beam="2">  1       21 0.83901542E-01 0.21408362E+03</pdfrwt>
<totfact> 0.75132332E+03</totfact>
</mgrwt>
</event>
<event>
12    1  0.2791583E-001  0.3318581E+03  0.7546771E-02  0.1070403E+00
         21   -1    0    0  502  503  0.00000000000E+00  0.00000000000E+00  0.73464814563E+03  0.73464814563E+03  0.00000000000E+00 0.  1.
         21   -1    0    0  503  504 -0.00000000000E+00 -0.00000000000E+00 -0.16991534462E+03  0.16991534462E+03  0.00000000000E+00 0.  1.
         -6    2    1    2    0  504  0.42181440031E+01 -0.28301747989E+03  0.12552205772E+03  0.35407656820E+03  0.17174906846E+03 0.  0.
        -24    2    3    3    0    0 -0.14439473273E+02 -0.66115119741E+02  0.65777621264E+01  0.10595446928E+03  0.81261154064E+02 0.  0.
          6    2    1    2  502    0 -0.42181440031E+01  0.28301747989E+03  0.43921074329E+03  0.55048692205E+03  0.17324285747E+03 0.  0.
         24    2    5    5    0    0 -0.27793755969E+02  0.25267794981E+03  0.43686681459E+03  0.51170702304E+03  0.79829972763E+02 0.  0.
          4    1    6    6  501    0 -0.54371026286E+02  0.15402937260E+03  0.28922526710E+03  0.33216338036E+03  0.00000000000E+00 0. -1.
         -3    1    6    6    0  501  0.26577270318E+02  0.98648577206E+02  0.14764154749E+03  0.17954364268E+03  0.00000000000E+00 0.  1.
          5    1    5    5  502    0  0.23575611965E+02  0.30339530079E+02  0.23439286985E+01  0.38779899003E+02  0.47000000000E+01 0. -1.
         11    1    4    4    0    0 -0.38372050400E+02 -0.62039760108E+01  0.13318672802E+02  0.41088813751E+02  0.00000000000E+00 0. -1.
        -12    1    4    4    0    0  0.23932577127E+02 -0.59911143730E+02 -0.67409106754E+01  0.64865655533E+02  0.00000000000E+00 0.  1.
         -5    1    3    3    0  504  0.18657617276E+02 -0.21690236015E+03  0.11894429559E+03  0.24812209892E+03  0.47000000000E+01 0.  1.
<mgrwt>
<rscale>  2 0.33166355E+03</rscale>
<asrwt>0</asrwt>
<pdfrwt beam="1">  1       21 0.11302279E+00 0.33185806E+03</pdfrwt>
<pdfrwt beam="2">  1       21 0.26140823E-01 0.33185806E+03</pdfrwt>
<totfact> 0.78525175E+03</totfact>
</mgrwt>
</event>
<event>
12    1  0.2791583E-001  0.2038822E+03  0.7546771E-02  0.1146834E+00
         21   -1    0    0  502  503  0.00000000000E+00  0.00000000000E+00  0.22293875839E+03  0.22293875839E+03  0.00000000000E+00 0. -1.
         21   -1    0    0  503  504 -0.00000000000E+00 -0.00000000000E+00 -0.24355472811E+03  0.24355472811E+03  0.00000000000E+00 0. -1.
         -6    2    1    2    0  504  0.10232130263E+03 -0.35200773686E+02 -0.12470861855E+03  0.23899833707E+03  0.17279821221E+03 0.  0.
        -24    2    3    3    0    0  0.47483124684E+02 -0.77509995440E+02 -0.11159119728E+03  0.16834812301E+03  0.87327250545E+02 0.  0.
          6    2    1    2  502    0 -0.10232130263E+03  0.35200773686E+02  0.10409264883E+03  0.22749514943E+03  0.17090939130E+03 0.  0.
         24    2    5    5    0    0 -0.40940186136E+02 -0.51647348139E+00  0.12393750696E+03  0.15360826561E+03  0.80985356987E+02 0.  0.
          4    1    6    6  501    0 -0.57849811197E+02  0.41413409049E+01  0.46867061370E+02  0.74567236783E+02  0.00000000000E+00 0. -1.
         -3    1    6    6    0  501  0.16909625061E+02 -0.46578143863E+01  0.77070445586E+02  0.79041028823E+02  0.00000000000E+00 0.  1.
          5    1    5    5  502    0 -0.61381116491E+02  0.35717247167E+02 -0.19844858129E+02  0.73886883823E+02  0.47000000000E+01 0. -1.
         11    1    4    4    0    0  0.60943472187E+02 -0.88470934121E+02 -0.86958696295E+02  0.13821370355E+03  0.00000000000E+00 0. -1.
        -12    1    4    4    0    0 -0.13460347502E+02  0.10960938681E+02 -0.24632500990E+02  0.30134419468E+02  0.00000000000E+00 0.  1.
         -5    1    3    3    0  504  0.54838177942E+02  0.42309221754E+02 -0.13117421262E+02  0.70650214055E+02  0.47000000000E+01 0.  1.
<mgrwt>
<rscale>  2 0.20348146E+03</rscale>
<asrwt>0</asrwt>
<pdfrwt beam="1">  1       21 0.34298271E-01 0.20388223E+03</pdfrwt>
<pdfrwt beam="2">  1       21 0.37469958E-01 0.20388223E+03</pdfrwt>
<totfact> 0.55973069E+04</totfact>
</mgrwt>
</event>
<event>
12    1  0.2791583E-001  0.2171572E+03  0.7546771E-02  0.1136033E+00
         21   -1    0    0  502  503  0.00000000000E+00  0.00000000000E+00  0.18653299708E+03  0.18653299708E+03  0.00000000000E+00 0.  1.
         21   -1    0    0  503  504 -0.00000000000E+00 -0.00000000000E+00 -0.30851902479E+03  0.30851902479E+03  0.00000000000E+00 0. -1.
         -6    2    1    2    0  504  0.12858857749E+03  0.25908384681E+02 -0.16625616474E+03  0.27349285623E+03  0.17306346650E+03 0.  0.
        -24    2    3    3    0    0  0.10042227913E+03 -0.29568445047E+02 -0.50042838838E+02  0.14158892863E+03  0.81143156840E+02 0.  0.
          6    2    1    2  502    0 -0.12858857749E+03 -0.25908384681E+02  0.44270137027E+02  0.22155916565E+03  0.17298078562E+03 0.  0.
         24    2    5    5    0    0 -0.10030568902E+03 -0.67796668853E+02 -0.10865839097E+02  0.14661507986E+03  0.81977409243E+02 0.  0.
          2    1    6    6  501    0  0.11029094032E+02 -0.93042935558E+01  0.12025897260E+02  0.18783849410E+02  0.00000000000E+00 0. -1.
         -1    1    6    6    0  501 -0.11133478306E+03 -0.58492375297E+02 -0.22891736357E+02  0.12783123045E+03  0.00000000000E+00 0.  1.
          5    1    5    5  502    0 -0.28282888464E+02  0.41888284172E+02  0.55135976123E+02  0.74944085783E+02  0.47000000000E+01 0. -1.
         13    1    4    4    0    0  0.10246017348E+03 -0.26397080238E+02 -0.66325363075E+02  0.12487572535E+03  0.00000000000E+00 0. -1.
        -14    1    4    4    0    0 -0.20378943503E+01 -0.31713648095E+01  0.16282524237E+02  0.16713203274E+02  0.00000000000E+00 0.  1.
         -5    1    3    3    0  504  0.28166298354E+02  0.55476829728E+02 -0.11621332590E+03  0.13190392760E+03  0.47000000000E+01 0.  1.
<mgrwt>
<rscale>  2 0.21714068E+03</rscale>
<asrwt>0</asrwt>
<pdfrwt beam="1">  1       21 0.28697385E-01 0.21715716E+03</pdfrwt>
<pdfrwt beam="2">  1       21 0.47464465E-01 0.21715716E+03</pdfrwt>
<totfact> 0.48741252E+04</totfact>
</mgrwt>
</event>
<event>
12    1  0.2791583E-001  0.2926857E+03  0.7546771E-02  0.1089117E+00
         21   -1    0    0  502  503  0.00000000000E+00  0.00000000000E+00  0.32422504328E+03  0.32422504328E+03  0.00000000000E+00 0. -1.
         21   -1    0    0  503  504 -0.00000000000E+00 -0.00000000000E+00 -0.33563873023E+03  0.33563873023E+03  0.00000000000E+00 0. -1.
         -6    2    1    2    0  504 -0.11547120363E+03 -0.20450164053E+03 -0.15911093143E+03  0.33313843683E+03  0.17467229245E+03 0.  0.
        -24    2    3    3    0    0 -0.27493588883E+01 -0.79772752663E+02 -0.10940959357E+03  0.15776505591E+03  0.80920347629E+02 0.  0.
          6    2    1    2  502    0  0.11547120363E+03  0.20450164053E+03  0.14769724448E+03  0.32672533667E+03  0.17257012995E+03 0.  0.
         24    2    5    5    0    0 -0.24764986764E+01  0.11726183306E+03  0.57887330067E+02  0.15464873974E+03  0.82515569330E+02 0.  0.
          2    1    6    6  501    0 -0.27532380344E+02  0.26054764617E+02  0.45553081188E+02  0.59261842128E+02  0.00000000000E+00 0. -1.
         -1    1    6    6    0  501  0.25055881668E+02  0.91207068444E+02  0.12334248879E+02  0.95386897610E+02  0.00000000000E+00 0.  1.
          5    1    5    5  502    0  0.11794770230E+03  0.87239807470E+02  0.89809914410E+02  0.17207659693E+03  0.47000000000E+01 0. -1.
         11    1    4    4    0    0 -0.21582603236E+02 -0.80670793264E+02 -0.11093021593E+03  0.13884919321E+03  0.00000000000E+00 0. -1.
        -12    1    4    4    0    0  0.18833244348E+02  0.89804060096E+00  0.15206223572E+01  0.18915862707E+02  0.00000000000E+00 0.  1.
         -5    1    3    3    0  504 -0.11272184474E+03 -0.12472888787E+03 -0.49701337859E+02  0.17537338092E+03  0.47000000000E+01 0.  1.
<mgrwt>
<rscale>  2 0.29237280E+03</rscale>
<asrwt>0</asrwt>
<pdfrwt beam="1">  1       21 0.49880776E-01 0.29268572E+03</pdfrwt>
<pdfrwt beam="2">  1       21 0.51636728E-01 0.29268572E+03</pdfrwt>
<totfact> 0.12919428E+04</totfact>
</mgrwt>
</event>
<event>
12    1  0.2791583E-001  0.3776778E+03  0.7546771E-02  0.1051885E+00
         21   -1    0    0  502  503  0.00000000000E+00  0.00000000000E+00  0.14756170821E+03  0.14756170821E+03  0.00000000000E+00 0.  1.
         21   -1    0    0  503  504 -0.00000000000E+00 -0.00000000000E+00 -0.12206396089E+04  0.12206396089E+04  0.00000000000E+00 0. -1.
         -6    2    1    2    0  504 -0.33273870857E+03 -0.39107343653E+02 -0.84956215656E+03  0.92933932880E+03  0.17225358537E+03 0.  0.
        -24    2    3    3    0    0 -0.17938600537E+03 -0.32152582656E+02 -0.30984403601E+03  0.36819481984E+03  0.79692980937E+02 0.  0.
          6    2    1    2  502    0  0.33273870857E+03  0.39107343653E+02 -0.22351574414E+03  0.43886198833E+03  0.17434484337E+03 0.  0.
         24    2    5    5    0    0  0.22078209510E+03  0.81559487274E+02 -0.10354357342E+03  0.26929819636E+03  0.80022268691E+02 0.  0.
          2    1    6    6  501    0  0.12981918578E+03  0.68386342684E+02 -0.25937618023E+02  0.14900494250E+03  0.00000000000E+00 0. -1.
         -1    1    6    6    0  501  0.90962909322E+02  0.13173144590E+02 -0.77605955401E+02  0.12029325386E+03  0.00000000000E+00 0.  1.
          5    1    5    5  502    0  0.11195661347E+03 -0.42452143621E+02 -0.11997217072E+03  0.16956379196E+03  0.47000000000E+01 0. -1.
         11    1    4    4    0    0 -0.50215236824E+02 -0.30442909522E+02 -0.46614148414E+02  0.74974792976E+02  0.00000000000E+00 0. -1.
        -12    1    4    4    0    0 -0.12917076854E+03 -0.17096731337E+01 -0.26322988760E+03  0.29322002686E+03  0.00000000000E+00 0.  1.
         -5    1    3    3    0  504 -0.15335270320E+03 -0.69547609973E+01 -0.53971812055E+03  0.56114450896E+03  0.47000000000E+01 0.  1.
<mgrwt>
<rscale>  2 0.37743742E+03</rscale>
<asrwt>0</asrwt>
<pdfrwt beam="1">  1       21 0.22701802E-01 0.37767785E+03</pdfrwt>
<pdfrwt beam="2">  1       21 0.18779071E+00 0.37767785E+03</pdfrwt>
<totfact> 0.25826158E+03</totfact>
</mgrwt>
</event>
<event>
12    1  0.2791583E-001  0.1965338E+03  0.7546771E-02  0.1155344E+00
         21   -1    0    0  502  503  0.00000000000E+00  0.00000000000E+00  0.33587308729E+03  0.33587308729E+03  0.00000000000E+00 0. -1.
         21   -1    0    0  503  504 -0.00000000000E+00 -0.00000000000E+00 -0.11452568548E+03  0.11452568548E+03  0.00000000000E+00 0.  1.
         -6    2    1    2    0  504 -0.46461707888E+02 -0.44752491901E+02  0.16698624799E+03  0.25789517643E+03  0.18564492769E+03 0.  0.
        -24    2    3    3    0    0 -0.84456863324E+02 -0.33429654101E+02  0.17887254164E+03  0.21623929486E+03  0.80706523604E+02 0.  0.
          6    2    1    2  502    0  0.46461707888E+02  0.44752491901E+02  0.54361153823E+02  0.19250359634E+03  0.17303474717E+03 0.  0.
         24    2    5    5    0    0  0.73326505602E+02  0.53058007393E+02  0.87267806080E+02  0.14896468608E+03  0.79892923026E+02 0.  0.
          4    1    6    6  501    0  0.94645927801E+01  0.55997799821E+02  0.40403870967E+02  0.69697954707E+02  0.00000000000E+00 0. -1.
         -3    1    6    6    0  501  0.63861912822E+02 -0.29397924283E+01  0.46863935113E+02  0.79266731376E+02  0.00000000000E+00 0.  1.
          5    1    5    5  502    0 -0.26864797713E+02 -0.83055154919E+01 -0.32906652258E+02  0.43538910259E+02  0.47000000000E+01 0. -1.
         11    1    4    4    0    0 -0.72043779359E+02  0.12035869656E+02  0.12391854423E+03  0.14384357444E+03  0.00000000000E+00 0. -1.
        -12    1    4    4    0    0 -0.12413083965E+02 -0.45465523757E+02  0.54953997411E+02  0.72395720423E+02  0.00000000000E+00 0.  1.
         -5    1    3    3    0  504  0.37995155435E+02 -0.11322837800E+02 -0.11886293658E+02  0.41655881569E+02  0.47000000000E+01 0.  1.
<mgrwt>
<rscale>  2 0.19349785E+03</rscale>
<asrwt>0</asrwt>
<pdfrwt beam="1">  1       21 0.51672782E-01 0.19653375E+03</pdfrwt>
<pdfrwt beam="2">  1       21 0.17619336E-01 0.19653375E+03</pdfrwt>
<totfact> 0.10373214E+05</totfact>
</mgrwt>
</event>
<event>
12    1  0.2791583E-001  0.2106795E+03  0.7546771E-02  0.1145335E+00
         21   -1    0    0  502  503  0.00000000000E+00  0.00000000000E+00  0.19097535888E+03  0.19097535888E+03  0.00000000000E+00 0. -1.
         21   -1    0    0  503  504 -0.00000000000E+00 -0.00000000000E+00 -0.36845775091E+03  0.36845775091E+03  0.00000000000E+00 0. -1.
         -6    2    1    2    0  504 -0.18664296699E+02 -0.77202650185E+02 -0.27454842757E+03  0.34606745288E+03  0.19513389683E+03 0.  0.
        -24    2    3    3    0    0  0.31770979490E+02 -0.50328470608E+02 -0.27050711584E+03  0.28858388294E+03  0.81019798074E+02 0.  0.
          6    2    1    2  502    0  0.18664296699E+02  0.77202650185E+02  0.97066035542E+02  0.21336565691E+03  0.17261078508E+03 0.  0.
         24    2    5    5    0    0  0.72373478416E+02  0.38044551129E+02  0.28062917545E+02  0.11744093009E+03  0.79495512263E+02 0.  0.
          4    1    6    6  501    0  0.58491583105E+02  0.48057359991E+02  0.49167911547E+02  0.90267705572E+02  0.00000000000E+00 0. -1.
         -3    1    6    6    0  501  0.13881895312E+02 -0.10012808862E+02 -0.21104994002E+02  0.27173224515E+02  0.00000000000E+00 0.  1.
          5    1    5    5  502    0 -0.53709181717E+02  0.39158099055E+02  0.69003117997E+02  0.95924726821E+02  0.47000000000E+01 0. -1.
         13    1    4    4    0    0  0.34205842957E+02 -0.10610409419E+02 -0.36201188895E+02  0.50922947262E+02  0.00000000000E+00 0. -1.
        -14    1    4    4    0    0 -0.24348634672E+01 -0.39718061189E+02 -0.23430592695E+03  0.23766093568E+03  0.00000000000E+00 0.  1.
         -5    1    3    3    0  504 -0.50435276189E+02 -0.26874179576E+02 -0.40413117285E+01  0.57483569936E+02  0.47000000000E+01 0.  1.
<mgrwt>
<rscale>  2 0.20530982E+03</rscale>
<asrwt>0</asrwt>
<pdfrwt beam="1">  1       21 0.29380825E-01 0.21067948E+03</pdfrwt>
<pdfrwt beam="2">  1       21 0.56685807E-01 0.21067948E+03</pdfrwt>
<totfact> 0.32156069E+04</totfact>
</mgrwt>
</event>
<event>
12    1  0.2791583E-001  0.1860564E+03  0.7546771E-02  0.1164054E+00
         21   -1    0    0  502  503  0.00000000000E+00  0.00000000000E+00  0.13641491279E+03  0.13641491279E+03  0.00000000000E+00 0. -1.
         21   -1    0    0  503  504 -0.00000000000E+00 -0.00000000000E+00 -0.32486325360E+03  0.32486325360E+03  0.00000000000E+00 0. -1.
         -6    2    1    2    0  504  0.88890891499E+01  0.61653481756E+02 -0.20872992280E+03  0.27411957034E+03  0.16641271122E+03 0.  0.
        -24    2    3    3    0    0  0.40165071446E+02  0.40280662707E+00 -0.17723940456E+03  0.19833319286E+03  0.79428292481E+02 0.  0.
          6    2    1    2  502    0 -0.88890891499E+01 -0.61653481756E+02  0.20281581986E+02  0.18715859605E+03  0.17531922253E+03 0.  0.
         24    2    5    5    0    0 -0.20515076102E+01  0.22653709395E+02 -0.31005526549E+02  0.88128739428E+02  0.79296486705E+02 0.  0.
          4    1    6    6  501    0  0.55332879744E+01 -0.14681488490E+02 -0.44910850838E+02  0.47572554095E+02  0.00000000000E+00 0. -1.
         -3    1    6    6    0  501 -0.75847955846E+01  0.37335197885E+02  0.13905324289E+02  0.40556185333E+02  0.00000000000E+00 0.  1.
          5    1    5    5  502    0 -0.68375815398E+01 -0.84307191150E+02  0.51287108536E+02  0.99029856624E+02  0.47000000000E+01 0. -1.
         13    1    4    4    0    0 -0.12992629070E+02  0.26699244175E+02 -0.60386146683E+02  0.67291490999E+02  0.00000000000E+00 0. -1.
        -14    1    4    4    0    0  0.53157700516E+02 -0.26296437548E+02 -0.11685325787E+03  0.13104170186E+03  0.00000000000E+00 0.  1.
         -5    1    3    3    0  504 -0.31275982296E+02  0.61250675128E+02 -0.31490518244E+02  0.75786377480E+02  0.47000000000E+01 0.  1.
<mgrwt>
<rscale>  2 0.18392833E+03</rscale>
<asrwt>0</asrwt>
<pdfrwt beam="1">  1       21 0.20986910E-01 0.18605644E+03</pdfrwt>
<pdfrwt beam="2">  1       21 0.49978962E-01 0.18605644E+03</pdfrwt>
<totfact> 0.80658039E+04</totfact>
</mgrwt>
</event>
<event>
12    1  0.2791583E-001  0.1771365E+03  0.7546771E-02  0.1170777E+00
         21   -1    0    0  502  503  0.00000000000E+00  0.00000000000E+00  0.31993678409E+02  0.31993678409E+02  0.00000000000E+00 0.  1.
         21   -1    0    0  503  504 -0.00000000000E+00 -0.00000000000E+00 -0.11542645960E+04  0.11542645960E+04  0.00000000000E+00 0.  1.
         -6    2    1    2    0  504  0.16524171565E+02 -0.32153228781E+02 -0.79272426559E+03  0.81212150407E+03  0.17269249479E+03 0.  0.
        -24    2    3    3    0    0 -0.84532111476E+01  0.31319228073E+02 -0.23399115426E+03  0.24922062282E+03  0.79414782871E+02 0.  0.
          6    2    1    2  502    0 -0.16524171565E+02  0.32153228781E+02 -0.32954665200E+03  0.37413677034E+03  0.17340832940E+03 0.  0.
         24    2    5    5    0    0  0.21166794360E+01 -0.20792845419E+02 -0.70143810969E+02  0.10868867365E+03  0.80350798438E+02 0.  0.
          4    1    6    6  501    0 -0.48460982739E+01 -0.51221989850E+02 -0.38692166442E+02  0.64375932278E+02  0.00000000000E+00 0. -1.
         -3    1    6    6    0  501  0.69627777099E+01  0.30429144432E+02 -0.31451644526E+02  0.44312741370E+02  0.00000000000E+00 0.  1.
          5    1    5    5  502    0 -0.18640851001E+02  0.52946074199E+02 -0.25940284104E+03  0.26544809669E+03  0.47000000000E+01 0. -1.
         13    1    4    4    0    0  0.15402905599E+02  0.23053979751E+02 -0.21705564415E+03  0.21881930478E+03  0.00000000000E+00 0. -1.
        -14    1    4    4    0    0 -0.23856116747E+02  0.82652483223E+01 -0.16935510110E+02  0.30401318043E+02  0.00000000000E+00 0.  1.
         -5    1    3    3    0  504  0.24977382712E+02 -0.63472456853E+02 -0.55873311132E+03  0.56290088125E+03  0.47000000000E+01 0.  1.
<mgrwt>
<rscale>  2 0.17696103E+03</rscale>
<asrwt>0</asrwt>
<pdfrwt beam="1">  1       21 0.49221039E-02 0.17713646E+03</pdfrwt>
<pdfrwt beam="2">  1       21 0.17757918E+00 0.17713646E+03</pdfrwt>
<totfact> 0.52712902E+04</totfact>
</mgrwt>
</event>
<event>
12    1  0.2791583E-001  0.2915546E+03  0.7546771E-02  0.1091375E+00
         21   -1    0    0  502  503  0.00000000000E+00  0.00000000000E+00  0.20836054705E+03  0.20836054705E+03  0.00000000000E+00 0. -1.
         21   -1    0    0  503  504 -0.00000000000E+00 -0.00000000000E+00 -0.40652293863E+03  0.40652293863E+03  0.00000000000E+00 0.  1.
         -6    2    1    2    0  504 -0.21642082606E+03 -0.21288206607E+02 -0.16078054273E+03  0.32094215907E+03  0.17280718982E+03 0.  0.
        -24    2    3    3    0    0 -0.15261652790E+03 -0.10259847932E+02 -0.30649086429E+02  0.17551554844E+03  0.80431785870E+02 0.  0.
          6    2    1    2  502    0  0.21642082606E+03  0.21288206607E+02 -0.37381848839E+02  0.29394132661E+03  0.19419819560E+03 0.  0.
         24    2    5    5    0    0  0.12803172340E+03 -0.64803517593E+02 -0.39693175963E+02  0.17044294331E+03  0.82967648021E+02 0.  0.
          4    1    6    6  501    0  0.99874613404E+01 -0.19108616720E+02 -0.38187593898E+02  0.43854086978E+02  0.00000000000E+00 0. -1.
         -3    1    6    6    0  501  0.11804426206E+03 -0.45694900872E+02 -0.15055820655E+01  0.12658885634E+03  0.00000000000E+00 0.  1.
          5    1    5    5  502    0  0.88389102658E+02  0.86091724199E+02  0.23113271243E+01  0.12349838330E+03  0.47000000000E+01 0. -1.
         11    1    4    4    0    0 -0.31898632133E+02 -0.36414430188E+02 -0.16709744715E+02  0.51212781865E+02  0.00000000000E+00 0. -1.
        -12    1    4    4    0    0 -0.12071789577E+03  0.26154582256E+02 -0.13939341713E+02  0.12430276658E+03  0.00000000000E+00 0.  1.
         -5    1    3    3    0  504 -0.63804298158E+02 -0.11028358675E+02 -0.13013145630E+03  0.14542661063E+03  0.47000000000E+01 0.  1.
<mgrwt>
<rscale>  2 0.28804438E+03</rscale>
<asrwt>0</asrwt>
<pdfrwt beam="1">  1       21 0.32055469E-01 0.29155463E+03</pdfrwt>
<pdfrwt beam="2">  1       21 0.62541990E-01 0.29155463E+03</pdfrwt>
<totfact> 0.21115965E+04</totfact>
</mgrwt>
</event>
<event>
12    1  0.2791583E-001  0.2779839E+03  0.7546771E-02  0.1096856E+00
         21   -1    0    0  502  503  0.00000000000E+00  0.00000000000E+00  0.20087543242E+03  0.20087543242E+03  0.00000000000E+00 0. -1.
         21   -1    0    0  503  504 -0.00000000000E+00 -0.00000000000E+00 -0.39112750279E+03  0.39112750279E+03  0.00000000000E+00 0.  1.
         -6    2    1    2    0  504 -0.93745568034E+02 -0.19604410544E+03 -0.55321664207E+02  0.28300250431E+03  0.17265111674E+03 0.  0.
        -24    2    3    3    0    0 -0.39943753000E+01 -0.16300520346E+03 -0.48443325685E+02  0.18700121692E+03  0.77692006888E+02 0.  0.
          6    2    1    2  502    0  0.93745568034E+02  0.19604410544E+03 -0.13493040616E+03  0.30900043090E+03  0.17335953676E+03 0.  0.
         24    2    5    5    0    0  0.13462525395E+03  0.12908371626E+03 -0.86149380247E+02  0.21649896643E+03  0.68289984227E+02 0.  0.
          4    1    6    6  501    0  0.30286093412E+02  0.72842277371E+02 -0.46177223999E+02  0.91408866326E+02  0.00000000000E+00 0. -1.
         -3    1    6    6    0  501  0.10433916054E+03  0.56241438890E+02 -0.39972156248E+02  0.12509010011E+03  0.00000000000E+00 0.  1.
          5    1    5    5  502    0 -0.40879685915E+02  0.66960389176E+02 -0.48781025911E+02  0.92501464464E+02  0.47000000000E+01 0. -1.
         13    1    4    4    0    0  0.87445568612E+00 -0.11790849905E+03  0.35985277091E+01  0.11796664030E+03  0.00000000000E+00 0. -1.
        -14    1    4    4    0    0 -0.48688309862E+01 -0.45096704408E+02 -0.52041853395E+02  0.69034576615E+02  0.00000000000E+00 0.  1.
         -5    1    3    3    0  504 -0.89751192734E+02 -0.33038901974E+02 -0.68783385220E+01  0.96001287396E+02  0.47000000000E+01 0.  1.
<mgrwt>
<rscale>  2 0.27787353E+03</rscale>
<asrwt>0</asrwt>
<pdfrwt beam="1">  1       21 0.30903913E-01 0.27798391E+03</pdfrwt>
<pdfrwt beam="2">  1       21 0.60173461E-01 0.27798391E+03</pdfrwt>
<totfact> 0.24828116E+04</totfact>
</mgrwt>
</event>
<event>
12    1  0.2791583E-001  0.1932432E+03  0.7546771E-02  0.1156443E+00
         21   -1    0    0  502  503  0.00000000000E+00  0.00000000000E+00  0.22701494540E+03  0.22701494540E+03  0.00000000000E+00 0. -1.
         21   -1    0    0  503  504 -0.00000000000E+00 -0.00000000000E+00 -0.24681425593E+03  0.24681425593E+03  0.00000000000E+00 0. -1.
         -6    2    1    2    0  504 -0.77217203234E+02  0.12746352155E+02  0.12971777608E+03  0.22949686794E+03  0.17238661489E+03 0.  0.
        -24    2    3    3    0    0 -0.25107509868E+02  0.67562937196E+02  0.90445326432E+02  0.14414645236E+03  0.86038974421E+02 0.  0.
          6    2    1    2  502    0  0.77217203234E+02 -0.12746352155E+02 -0.14951708661E+03  0.24433233339E+03  0.17668606053E+03 0.  0.
         24    2    5    5    0    0  0.17586515257E+02 -0.14291216236E+02  0.13924874782E+01  0.81993197306E+02  0.78787188061E+02 0.  0.
          2    1    6    6  501    0  0.13378366229E+02 -0.43283607005E+02 -0.15853474774E+02  0.47997749747E+02  0.00000000000E+00 0. -1.
         -1    1    6    6    0  501  0.42081490282E+01  0.28992390769E+02  0.17245962253E+02  0.33995447559E+02  0.00000000000E+00 0.  1.
          5    1    5    5  502    0  0.59630687977E+02  0.15448640818E+01 -0.15090957409E+03  0.16233913609E+03  0.47000000000E+01 0. -1.
         11    1    4    4    0    0 -0.38217280457E+02  0.10855850178E+00  0.54589570613E+02  0.66637778550E+02  0.00000000000E+00 0. -1.
        -12    1    4    4    0    0  0.13109770589E+02  0.67454378695E+02  0.35855755820E+02  0.77508673807E+02  0.00000000000E+00 0.  1.
         -5    1    3    3    0  504 -0.52109693366E+02 -0.54816585042E+02  0.39272449652E+02  0.85350415582E+02  0.47000000000E+01 0.  1.
<mgrwt>
<rscale>  2 0.19225487E+03</rscale>
<asrwt>0</asrwt>
<pdfrwt beam="1">  1       21 0.34925376E-01 0.19324319E+03</pdfrwt>
<pdfrwt beam="2">  1       21 0.37971424E-01 0.19324319E+03</pdfrwt>
<totfact> 0.52848428E+04</totfact>
</mgrwt>
</event>
<event>
12    1  0.2791583E-001  0.1996133E+03  0.7546771E-02  0.1150228E+00
         21   -1    0    0  502  503  0.00000000000E+00  0.00000000000E+00  0.56131344690E+03  0.56131344690E+03  0.00000000000E+00 0. -1.
         21   -1    0    0  503  504 -0.00000000000E+00 -0.00000000000E+00 -0.73460560893E+02  0.73460560893E+02  0.00000000000E+00 0.  1.
         -6    2    1    2    0  504  0.98273033375E+02 -0.65198881524E+01  0.18211012986E+03  0.26963825920E+03  0.17274430063E+03 0.  0.
        -24    2    3    3    0    0  0.19061092309E+02  0.41247941507E+02  0.30910436523E+02  0.92325726023E+02  0.74188049449E+02 0.  0.
          6    2    1    2  502    0 -0.98273033375E+02  0.65198881524E+01  0.30574275615E+03  0.36513574859E+03  0.17362426078E+03 0.  0.
         24    2    5    5    0    0  0.10485475611E+02  0.43714792724E+02  0.48323011648E+02  0.83180275047E+02  0.50625254573E+02 0.  0.
          2    1    6    6  501    0  0.27298316893E+01 -0.10661801356E+02  0.16090416891E+02  0.19494294164E+02  0.00000000000E+00 0. -1.
         -1    1    6    6    0  501  0.77556439215E+01  0.54376594080E+02  0.32232594757E+02  0.63685980884E+02  0.00000000000E+00 0.  1.
          5    1    5    5  502    0 -0.10875850899E+03 -0.37194904571E+02  0.25741974450E+03  0.28195547355E+03  0.47000000000E+01 0. -1.
         11    1    4    4    0    0 -0.25936855885E+02  0.27514463628E+02  0.37404553373E+01  0.37996805235E+02  0.00000000000E+00 0. -1.
        -12    1    4    4    0    0  0.44997948194E+02  0.13733477879E+02  0.27169981186E+02  0.54328920788E+02  0.00000000000E+00 0.  1.
         -5    1    3    3    0  504  0.79211941066E+02 -0.47767829659E+02  0.15119969334E+03  0.17731253318E+03  0.47000000000E+01 0.  1.
<mgrwt>
<rscale>  2 0.19942183E+03</rscale>
<asrwt>0</asrwt>
<pdfrwt beam="1">  1       21 0.86355912E-01 0.19961333E+03</pdfrwt>
<pdfrwt beam="2">  1       21 0.11301625E-01 0.19961333E+03</pdfrwt>
<totfact> 0.75234267E+04</totfact>
</mgrwt>
</event>
<event>
12    1  0.2791583E-001  0.1919929E+03  0.7546771E-02  0.1156925E+00
         21   -1    0    0  502  503  0.00000000000E+00  0.00000000000E+00  0.18941726088E+03  0.18941726088E+03  0.00000000000E+00 0.  1.
         21   -1    0    0  503  504 -0.00000000000E+00 -0.00000000000E+00 -0.37814004761E+03  0.37814004761E+03  0.00000000000E+00 0.  1.
         -6    2    1    2    0  504  0.27239484629E+02 -0.78620392851E+02 -0.29281267797E+03  0.35014357395E+03  0.17302630523E+03 0.  0.
        -24    2    3    3    0    0 -0.37906442201E+02 -0.27831168878E+01 -0.17270451032E+03  0.19379989437E+03  0.79290018746E+02 0.  0.
          6    2    1    2  502    0 -0.27239484629E+02  0.78620392851E+02  0.10408989125E+03  0.21741373454E+03  0.17178728361E+03 0.  0.
         24    2    5    5    0    0 -0.59911251197E+02  0.27055081988E+02  0.78660796982E+01  0.10336314259E+03  0.79377128663E+02 0.  0.
          4    1    6    6  501    0 -0.22710620710E+02  0.54765338575E+01 -0.35364707416E+02  0.42384280657E+02  0.00000000000E+00 0. -1.
         -3    1    6    6    0  501 -0.37200630487E+02  0.21578548130E+02  0.43230787115E+02  0.60978861933E+02  0.00000000000E+00 0.  1.
          5    1    5    5  502    0  0.32671766568E+02  0.51565310863E+02  0.96223811551E+02  0.11405059195E+03  0.47000000000E+01 0. -1.
         13    1    4    4    0    0 -0.46712365617E+02 -0.32434675901E+02 -0.10677388631E+03  0.12097403068E+03  0.00000000000E+00 0. -1.
        -14    1    4    4    0    0  0.88059234151E+01  0.29651559013E+02 -0.65930624016E+02  0.72825863691E+02  0.00000000000E+00 0.  1.
         -5    1    3    3    0  504  0.65145926831E+02 -0.75837275963E+02 -0.12010816765E+03  0.15634367958E+03  0.47000000000E+01 0.  1.
<mgrwt>
<rscale>  2 0.19171328E+03</rscale>
<asrwt>0</asrwt>
<pdfrwt beam="1">  1       21 0.29141117E-01 0.19199286E+03</pdfrwt>
<pdfrwt beam="2">  1       21 0.58175391E-01 0.19199286E+03</pdfrwt>
<totfact> 0.31228476E+04</totfact>
</mgrwt>
</event>
<event>
12    1  0.2791583E-001  0.1932068E+03  0.7546771E-02  0.1155933E+00
         21   -1    0    0  502  503  0.00000000000E+00  0.00000000000E+00  0.48610073553E+03  0.48610073553E+03  0.00000000000E+00 0. -1.
         21   -1    0    0  503  504 -0.00000000000E+00 -0.00000000000E+00 -0.17670627553E+03  0.17670627553E+03  0.00000000000E+00 0. -1.
         -6    2    1    2    0  504 -0.18119676269E+02  0.83966531371E+02 -0.94981529914E+02  0.21529132325E+03  0.17306115042E+03 0.  0.
        -24    2    3    3    0    0  0.20935350074E+02  0.11640689660E+03 -0.66181975694E+02  0.15673215060E+03  0.78715047255E+02 0.  0.
          6    2    1    2  502    0  0.18119676269E+02 -0.83966531371E+02  0.40437598991E+03  0.44751568781E+03  0.17138158757E+03 0.  0.
         24    2    5    5    0    0  0.40355318901E+02  0.95523889502E+01  0.14875304123E+03  0.17437580761E+03  0.80991697762E+02 0.  0.
          4    1    6    6  501    0  0.28308223617E+02 -0.16232604440E+02  0.14121179677E+03  0.14493317259E+03  0.00000000000E+00 0. -1.
         -3    1    6    6    0  501  0.12047095284E+02  0.25784993391E+02  0.75412444660E+01  0.29442635022E+02  0.00000000000E+00 0.  1.
          5    1    5    5  502    0 -0.22235642633E+02 -0.93518920321E+02  0.25562294868E+03  0.27313988019E+03  0.47000000000E+01 0. -1.
         11    1    4    4    0    0 -0.10774507277E+02  0.20007847450E+02 -0.48721541572E+02  0.53760511343E+02  0.00000000000E+00 0. -1.
        -12    1    4    4    0    0  0.31709857350E+02  0.96399049154E+02 -0.17460434122E+02  0.10297163925E+03  0.00000000000E+00 0.  1.
         -5    1    3    3    0  504 -0.39055026342E+02 -0.32440365233E+02 -0.28799554219E+02  0.58559172657E+02  0.47000000000E+01 0.  1.
<mgrwt>
<rscale>  2 0.19282994E+03</rscale>
<asrwt>0</asrwt>
<pdfrwt beam="1">  1       21 0.74784728E-01 0.19320679E+03</pdfrwt>
<pdfrwt beam="2">  1       21 0.27185581E-01 0.19320679E+03</pdfrwt>
<totfact> 0.20633480E+04</totfact>
</mgrwt>
</event>
<event>
12    1  0.2791583E-001  0.1773317E+03  0.7546771E-02  0.1171925E+00
         21   -1    0    0  502  503  0.00000000000E+00  0.00000000000E+00  0.58416893338E+02  0.58416893338E+02  0.00000000000E+00 0.  1.
         21   -1    0    0  503  504 -0.00000000000E+00 -0.00000000000E+00 -0.90154544513E+03  0.90154544513E+03  0.00000000000E+00 0.  1.
         -6    2    1    2    0  504  0.35536731649E+02  0.22033867334E+02 -0.72951142336E+03  0.74935511815E+03  0.16612593320E+03 0.  0.
        -24    2    3    3    0    0  0.39217356078E+02 -0.32897824917E+02 -0.24503343184E+03  0.26173636126E+03  0.76447839614E+02 0.  0.
          6    2    1    2  502    0 -0.35536731649E+02 -0.22033867334E+02 -0.11361712843E+03  0.21060722032E+03  0.17233165342E+03 0.  0.
         24    2    5    5    0    0  0.37392955526E+02 -0.20335403952E+02 -0.10181015014E+03  0.13655913603E+03  0.80444572139E+02 0.  0.
          2    1    6    6  501    0  0.63235557153E+01  0.13429673401E+02 -0.87127153109E+02  0.88382601757E+02  0.00000000000E+00 0. -1.
         -1    1    6    6    0  501  0.31069399811E+02 -0.33765077353E+02 -0.14682997028E+02  0.48176534277E+02  0.00000000000E+00 0.  1.
          5    1    5    5  502    0 -0.72929687175E+02 -0.16984633819E+01 -0.11806978292E+02  0.74048084281E+02  0.47000000000E+01 0. -1.
         13    1    4    4    0    0  0.27432360873E+02  0.41327726194E+01 -0.22175712971E+02  0.35515862348E+02  0.00000000000E+00 0. -1.
        -14    1    4    4    0    0  0.11784995205E+02 -0.37030597536E+02 -0.22285771887E+03  0.22622049891E+03  0.00000000000E+00 0.  1.
         -5    1    3    3    0  504 -0.36806244291E+01  0.54931692251E+02 -0.48447799152E+03  0.48761875690E+03  0.47000000000E+01 0.  1.
<mgrwt>
<rscale>  2 0.17580605E+03</rscale>
<asrwt>0</asrwt>
<pdfrwt beam="1">  1       21 0.89872152E-02 0.17733175E+03</pdfrwt>
<pdfrwt beam="2">  1       21 0.13869929E+00 0.17733175E+03</pdfrwt>
<totfact> 0.36220549E+04</totfact>
</mgrwt>
</event>
<event>
12    1  0.2791583E-001  0.2015769E+03  0.7546771E-02  0.1148807E+00
         21   -1    0    0  502  503  0.00000000000E+00  0.00000000000E+00  0.37829005350E+02  0.37829005350E+02  0.00000000000E+00 0.  1.
         21   -1    0    0  503  504 -0.00000000000E+00 -0.00000000000E+00 -0.16971888075E+04  0.16971888075E+04  0.00000000000E+00 0.  1.
         -6    2    1    2    0  504 -0.75262789644E+02 -0.73958017685E+02 -0.30231347733E+03  0.36335475463E+03  0.17175262224E+03 0.  0.
        -24    2    3    3    0    0 -0.10611713444E+03 -0.93714960425E+02 -0.21957231375E+03  0.27274284851E+03  0.78315518386E+02 0.  0.
          6    2    1    2  502    0  0.75262789644E+02  0.73958017685E+02 -0.13570463249E+04  0.13716630583E+04  0.16955984700E+03 0.  0.
         24    2    5    5    0    0  0.68626350749E+02  0.36346517873E+02 -0.12861016088E+04  0.12909542609E+04  0.80466826254E+02 0.  0.
          2    1    6    6  501    0 -0.90475782925E+00 -0.21007115661E+02 -0.30343724753E+03  0.30416489062E+03  0.00000000000E+00 0. -1.
         -1    1    6    6    0  501  0.69531108579E+02  0.57353633534E+02 -0.98266436132E+03  0.98678937030E+03  0.00000000000E+00 0.  1.
          5    1    5    5  502    0  0.66364388950E+01  0.37611499812E+02 -0.70944716018E+02  0.80708797353E+02  0.47000000000E+01 0. -1.
         13    1    4    4    0    0 -0.10067766599E+03 -0.58991948527E+02 -0.20239544750E+03  0.23362354246E+03  0.00000000000E+00 0. -1.
        -14    1    4    4    0    0 -0.54394684425E+01 -0.34723011898E+02 -0.17176866254E+02  0.39119306059E+02  0.00000000000E+00 0.  1.
         -5    1    3    3    0  504  0.30854344791E+02  0.19756942740E+02 -0.82741163580E+02  0.90611906113E+02  0.47000000000E+01 0.  1.
<mgrwt>
<rscale>  2 0.20110899E+03</rscale>
<asrwt>0</asrwt>
<pdfrwt beam="1">  1       21 0.58198469E-02 0.20157688E+03</pdfrwt>
<pdfrwt beam="2">  1       21 0.26110597E+00 0.20157688E+03</pdfrwt>
<totfact> 0.11792841E+04</totfact>
</mgrwt>
</event>
<event>
12    1  0.2791583E-001  0.1919307E+03  0.7546771E-02  0.1157053E+00
         21   -1    0    0  502  503  0.00000000000E+00  0.00000000000E+00  0.20498980712E+02  0.20498980712E+02  0.00000000000E+00 0.  1.
         21   -1    0    0  503  504 -0.00000000000E+00 -0.00000000000E+00 -0.19625377074E+04  0.19625377074E+04  0.00000000000E+00 0. -1.
         -6    2    1    2    0  504  0.23868801728E+02  0.80461626910E+02 -0.12737423830E+04  0.12881215271E+04  0.17260827646E+03 0.  0.
        -24    2    3    3    0    0 -0.42303426049E+01  0.94943973878E+02 -0.12111861675E+04  0.12178743179E+04  0.84933315461E+02 0.  0.
          6    2    1    2  502    0 -0.23868801728E+02 -0.80461626910E+02 -0.66829634360E+03  0.69491516097E+03  0.17100668110E+03 0.  0.
         24    2    5    5    0    0  0.32292701563E+02 -0.22678923186E+02 -0.50257547691E+03  0.51058271413E+03  0.80965707855E+02 0.  0.
          4    1    6    6  501    0  0.42576792496E+02 -0.32279698736E+02 -0.48561947913E+03  0.48854993677E+03  0.00000000000E+00 0. -1.
         -3    1    6    6    0  501 -0.10284090934E+02  0.96007755502E+01 -0.16955997782E+02  0.22032777362E+02  0.00000000000E+00 0.  1.
          5    1    5    5  502    0 -0.56161503291E+02 -0.57782703724E+02 -0.16572086669E+03  0.18433244684E+03  0.47000000000E+01 0. -1.
         11    1    4    4    0    0  0.33607521419E+02  0.52843920389E+02 -0.41733679473E+03  0.42200941418E+03  0.00000000000E+00 0. -1.
        -12    1    4    4    0    0 -0.37837864024E+02  0.42100053489E+02 -0.79384937274E+03  0.79586490377E+03  0.00000000000E+00 0.  1.
         -5    1    3    3    0  504  0.28099144333E+02 -0.14482346968E+02 -0.62556215582E+02  0.70247209154E+02  0.47000000000E+01 0.  1.
<mgrwt>
<rscale>  2 0.19156996E+03</rscale>
<asrwt>0</asrwt>
<pdfrwt beam="1">  1       21 0.31536891E-02 0.19193074E+03</pdfrwt>
<pdfrwt beam="2">  1       21 0.30192890E+00 0.19193074E+03</pdfrwt>
<totfact> 0.19395080E+04</totfact>
</mgrwt>
</event>
<event>
12    1  0.2791583E-001  0.2195332E+03  0.7546771E-02  0.1134892E+00
         21   -1    0    0  502  503  0.00000000000E+00  0.00000000000E+00  0.37012798248E+03  0.37012798248E+03  0.00000000000E+00 0. -1.
         21   -1    0    0  503  504 -0.00000000000E+00 -0.00000000000E+00 -0.50287077072E+03  0.50287077072E+03  0.00000000000E+00 0. -1.
         -6    2    1    2    0  504  0.12859414908E+03 -0.16177418044E+02 -0.44303534697E+03  0.49289835025E+03  0.17283026640E+03 0.  0.
        -24    2    3    3    0    0  0.12089914032E+03  0.34356773344E+02 -0.22828020847E+03  0.27209351070E+03  0.78268991170E+02 0.  0.
          6    2    1    2  502    0 -0.12859414908E+03  0.16177418044E+02  0.31029255872E+03  0.38010040296E+03  0.17719108413E+03 0.  0.
         24    2    5    5    0    0  0.10685641641E+02  0.24378337539E+02  0.12246861284E+03  0.14607895131E+03  0.75046736143E+02 0.  0.
          4    1    6    6  501    0 -0.20654827182E+02  0.38509254038E+02  0.82502572669E+02  0.93360907394E+02  0.00000000000E+00 0. -1.
         -3    1    6    6    0  501  0.31340468822E+02 -0.14130916499E+02  0.39966040173E+02  0.52718043915E+02  0.00000000000E+00 0.  1.
          5    1    5    5  502    0 -0.13927979072E+03 -0.82009194953E+01  0.18782394588E+03  0.23402145165E+03  0.47000000000E+01 0. -1.
         11    1    4    4    0    0  0.50156543423E+02  0.41201159294E+02 -0.55995676243E+02  0.85724734664E+02  0.00000000000E+00 0. -1.
        -12    1    4    4    0    0  0.70742596900E+02 -0.68443859497E+01 -0.17228453223E+03  0.18636877603E+03  0.00000000000E+00 0.  1.
         -5    1    3    3    0  504  0.76950087593E+01 -0.50534191388E+02 -0.21475513850E+03  0.22080483955E+03  0.47000000000E+01 0.  1.
<mgrwt>
<rscale>  2 0.21865185E+03</rscale>
<asrwt>0</asrwt>
<pdfrwt beam="1">  1       21 0.56942767E-01 0.21953324E+03</pdfrwt>
<pdfrwt beam="2">  1       21 0.77364734E-01 0.21953324E+03</pdfrwt>
<totfact> 0.42091428E+03</totfact>
</mgrwt>
</event>
<event>
12    1  0.2791583E-001  0.2258092E+03  0.7546771E-02  0.1129836E+00
         21   -1    0    0  502  503  0.00000000000E+00  0.00000000000E+00  0.18922409541E+03  0.18922409541E+03  0.00000000000E+00 0. -1.
         21   -1    0    0  503  504 -0.00000000000E+00 -0.00000000000E+00 -0.47002588251E+03  0.47002588251E+03  0.00000000000E+00 0. -1.
         -6    2    1    2    0  504  0.97131824434E+02 -0.10657379119E+03 -0.35625782520E+03  0.42116723725E+03  0.17224877194E+03 0.  0.
        -24    2    3    3    0    0  0.65642831642E+02 -0.71703270194E+02 -0.35087020464E+03  0.37364222955E+03  0.83954004657E+02 0.  0.
          6    2    1    2  502    0 -0.97131824434E+02  0.10657379119E+03  0.75456038100E+02  0.23808274067E+03  0.17377345434E+03 0.  0.
         24    2    5    5    0    0 -0.26220978447E+02  0.19546241583E+02 -0.18581079826E+02  0.91565806437E+02  0.83483202563E+02 0.  0.
          2    1    6    6  501    0 -0.26470384172E+01  0.40320097405E+02 -0.37300422304E+02  0.54991259043E+02  0.00000000000E+00 0. -1.
         -1    1    6    6    0  501 -0.23573940030E+02 -0.20773855822E+02  0.18719342478E+02  0.36574547394E+02  0.00000000000E+00 0.  1.
          5    1    5    5  502    0 -0.70910845987E+02  0.87027549611E+02  0.94037117926E+02  0.14651693423E+03  0.47000000000E+01 0. -1.
         11    1    4    4    0    0  0.46623748965E+02 -0.88456013888E+02 -0.30817489513E+03  0.32399075041E+03  0.00000000000E+00 0. -1.
        -12    1    4    4    0    0  0.19019082677E+02  0.16752743695E+02 -0.42695309509E+02  0.49651479145E+02  0.00000000000E+00 0.  1.
         -5    1    3    3    0  504  0.31488992792E+02 -0.34870521000E+02 -0.53876205573E+01  0.47525007703E+02  0.47000000000E+01 0.  1.
<mgrwt>
<rscale>  2 0.22551579E+03</rscale>
<asrwt>0</asrwt>
<pdfrwt beam="1">  1       21 0.29111399E-01 0.22580916E+03</pdfrwt>
<pdfrwt beam="2">  1       21 0.72311674E-01 0.22580916E+03</pdfrwt>
<totfact> 0.19108675E+04</totfact>
</mgrwt>
</event>
<event>
12    1  0.2791583E-001  0.1931886E+03  0.7546771E-02  0.1155879E+00
         21   -1    0    0  502  503  0.00000000000E+00  0.00000000000E+00  0.17493285908E+03  0.17493285908E+03  0.00000000000E+00 0. -1.
         21   -1    0    0  503  504 -0.00000000000E+00 -0.00000000000E+00 -0.46537835855E+03  0.46537835855E+03  0.00000000000E+00 0. -1.
         -6    2    1    2    0  504 -0.75102043543E+02  0.40685674051E+02 -0.38123247735E+03  0.42685369676E+03  0.17195998264E+03 0.  0.
        -24    2    3    3    0    0 -0.11195822244E+03  0.67274535087E+01 -0.31385701682E+03  0.34275208353E+03  0.79955372272E+02 0.  0.
          6    2    1    2  502    0  0.75102043543E+02 -0.40685674051E+02  0.90786977883E+02  0.21345752087E+03  0.17328068803E+03 0.  0.
         24    2    5    5    0    0  0.35190663298E+02 -0.18699285071E+02 -0.21181547891E+02  0.92480827501E+02  0.80721740806E+02 0.  0.
          2    1    6    6  501    0  0.16518417794E+02 -0.47155285938E+02  0.40269338780E+01  0.50126792385E+02  0.00000000000E+00 0. -1.
         -1    1    6    6    0  501  0.18672245504E+02  0.28456000868E+02 -0.25208481769E+02  0.42354035116E+02  0.00000000000E+00 0.  1.
          5    1    5    5  502    0  0.39911380245E+02 -0.21986388980E+02  0.11196852577E+03  0.12097669336E+03  0.47000000000E+01 0. -1.
         11    1    4    4    0    0 -0.94001954098E+02  0.12954386624E+02 -0.14798360129E+03  0.17579342922E+03  0.00000000000E+00 0. -1.
        -12    1    4    4    0    0 -0.17956268343E+02 -0.62269331151E+01 -0.16587341554E+03  0.16695865431E+03  0.00000000000E+00 0.  1.
         -5    1    3    3    0  504  0.36856178898E+02  0.33958220542E+02 -0.67375460532E+02  0.84101613226E+02  0.47000000000E+01 0.  1.
<mgrwt>
<rscale>  2 0.19289199E+03</rscale>
<asrwt>0</asrwt>
<pdfrwt beam="1">  1       21 0.26912748E-01 0.19318861E+03</pdfrwt>
<pdfrwt beam="2">  1       21 0.71596669E-01 0.19318861E+03</pdfrwt>
<totfact> 0.23177492E+04</totfact>
</mgrwt>
</event>
<event>
12    1  0.2791583E-001  0.2046127E+03  0.7546771E-02  0.1146197E+00
         21   -1    0    0  502  503  0.00000000000E+00  0.00000000000E+00  0.14287397831E+02  0.14287397831E+02  0.00000000000E+00 0. -1.
         21   -1    0    0  503  504 -0.00000000000E+00 -0.00000000000E+00 -0.30883548373E+04  0.30883548373E+04  0.00000000000E+00 0. -1.
         -6    2    1    2    0  504  0.68867693903E+02 -0.81468918515E+02 -0.19149079213E+04  0.19258085896E+04  0.17460364488E+03 0.  0.
        -24    2    3    3    0    0  0.13321341178E+02 -0.65523013623E+02 -0.56134757613E+03  0.57100699262E+03  0.80418660458E+02 0.  0.
          6    2    1    2  502    0 -0.68867693903E+02  0.81468918515E+02 -0.11591595182E+04  0.11768336455E+04  0.17293552765E+03 0.  0.
         24    2    5    5    0    0 -0.71526955570E+02  0.25521230230E+02 -0.10306974630E+04  0.10366130867E+04  0.80386520847E+02 0.  0.
          4    1    6    6  501    0 -0.63616936919E+02  0.41352198773E+00 -0.37280665176E+03  0.37819582925E+03  0.00000000000E+00 0. -1.
         -3    1    6    6    0  501 -0.79100186506E+01  0.25107708242E+02 -0.65789081122E+03  0.65841725744E+03  0.00000000000E+00 0.  1.
          5    1    5    5  502    0  0.26592616666E+01  0.55947688285E+02 -0.12846205522E+03  0.14022055886E+03  0.47000000000E+01 0. -1.
         11    1    4    4    0    0  0.13537246711E+02  0.28360112439E+01 -0.15015534699E+02  0.20414854655E+02  0.00000000000E+00 0. -1.
        -12    1    4    4    0    0 -0.21590553214E+00 -0.68359024866E+02 -0.54633204143E+03  0.55059213796E+03  0.00000000000E+00 0.  1.
         -5    1    3    3    0  504  0.55546352725E+02 -0.15945904892E+02 -0.13535603452E+04  0.13548015970E+04  0.47000000000E+01 0.  1.
<mgrwt>
<rscale>  2 0.20425642E+03</rscale>
<asrwt>0</asrwt>
<pdfrwt beam="1">  1       21 0.21980594E-02 0.20461275E+03</pdfrwt>
<pdfrwt beam="2">  1       21 0.47513190E+00 0.20461275E+03</pdfrwt>
<totfact> 0.29229759E+03</totfact>
</mgrwt>
</event>
<event>
12    1  0.2791583E-001  0.2402577E+03  0.7546771E-02  0.1119730E+00
         21   -1    0    0  502  503  0.00000000000E+00  0.00000000000E+00  0.97997869028E+03  0.97997869028E+03  0.00000000000E+00 0. -1.
         21   -1    0    0  503  504 -0.00000000000E+00 -0.00000000000E+00 -0.60150218886E+02  0.60150218886E+02  0.00000000000E+00 0.  1.
         -6    2    1    2    0  504  0.85880270084E+01 -0.16621302855E+03  0.38098895408E+03  0.45041798492E+03  0.17327219322E+03 0.  0.
        -24    2    3    3    0    0 -0.94437243451E+01 -0.24049438842E+02  0.21686348410E+03  0.23248476077E+03  0.79698392793E+02 0.  0.
          6    2    1    2  502    0 -0.85880270084E+01  0.16621302855E+03  0.53883951732E+03  0.58971092425E+03  0.17236711891E+03 0.  0.
         24    2    5    5    0    0 -0.56374167048E+02  0.80132874092E+02  0.21679021374E+03  0.25291550844E+03  0.85842491898E+02 0.  0.
          2    1    6    6  501    0 -0.23949531610E+02  0.33289660927E+02  0.18110803382E+03  0.18569303031E+03  0.00000000000E+00 0. -1.
         -1    1    6    6    0  501 -0.32424635439E+02  0.46843213165E+02  0.35682179920E+02  0.67222478136E+02  0.00000000000E+00 0.  1.
          5    1    5    5  502    0  0.47786140040E+02  0.86080154460E+02  0.32204930358E+03  0.33679541581E+03  0.47000000000E+01 0. -1.
         11    1    4    4    0    0  0.14993788811E+02 -0.43929783709E+02  0.16841574654E+03  0.17469545867E+03  0.00000000000E+00 0. -1.
        -12    1    4    4    0    0 -0.24437513156E+02  0.19880344867E+02  0.48447737570E+02  0.57789302097E+02  0.00000000000E+00 0.  1.
         -5    1    3    3    0  504  0.18031751353E+02 -0.14216358971E+03  0.16412546997E+03  0.21793322415E+03  0.47000000000E+01 0.  1.
<mgrwt>
<rscale>  2 0.24009459E+03</rscale>
<asrwt>0</asrwt>
<pdfrwt beam="1">  1       21 0.15076594E+00 0.24025773E+03</pdfrwt>
<pdfrwt beam="2">  1       21 0.92538806E-02 0.24025773E+03</pdfrwt>
<totfact> 0.26667864E+04</totfact>
</mgrwt>
</event>
<event>
12    1  0.2791583E-001  0.3634965E+03  0.7546771E-02  0.1057356E+00
         21   -1    0    0  502  503  0.00000000000E+00  0.00000000000E+00  0.65256700632E+03  0.65256700632E+03  0.00000000000E+00 0. -1.
         21   -1    0    0  503  504 -0.00000000000E+00 -0.00000000000E+00 -0.72786299712E+03  0.72786299712E+03  0.00000000000E+00 0.  1.
         -6    2    1    2    0  504 -0.13399059905E+03  0.29004614511E+03 -0.62450254860E+03  0.72182729273E+03  0.17014981751E+03 0.  0.
        -24    2    3    3    0    0 -0.42580384676E+02  0.22694824266E+03 -0.36155188606E+03  0.43634119234E+03  0.79719983790E+02 0.  0.
          6    2    1    2  502    0  0.13399059905E+03 -0.29004614511E+03  0.54920655781E+03  0.65860271071E+03  0.17334774440E+03 0.  0.
         24    2    5    5    0    0  0.60311791545E+02 -0.26904490489E+03  0.44932911845E+03  0.53263758991E+03  0.76049144966E+02 0.  0.
          2    1    6    6  501    0  0.77040661072E+02 -0.24415191556E+03  0.40102765718E+03  0.47578209629E+03  0.00000000000E+00 0. -1.
         -1    1    6    6    0  501 -0.16728869526E+02 -0.24892989327E+02  0.48301461271E+02  0.56855493615E+02  0.00000000000E+00 0.  1.
          5    1    5    5  502    0  0.73678807500E+02 -0.21001240217E+02  0.99877439359E+02  0.12596512080E+03  0.47000000000E+01 0. -1.
         11    1    4    4    0    0 -0.13694447770E+02  0.50283010749E+01 -0.50883524783E+01  0.15450341174E+02  0.00000000000E+00 0. -1.
        -12    1    4    4    0    0 -0.28885936906E+02  0.22191994158E+03 -0.35646353358E+03  0.42089085116E+03  0.00000000000E+00 0.  1.
         -5    1    3    3    0  504 -0.91410214369E+02  0.63097902449E+02 -0.26295066255E+03  0.28548610039E+03  0.47000000000E+01 0.  1.
<mgrwt>
<rscale>  2 0.36311735E+03</rscale>
<asrwt>0</asrwt>
<pdfrwt beam="1">  1       21 0.10039492E+00 0.36349648E+03</pdfrwt>
<pdfrwt beam="2">  1       21 0.11197892E+00 0.36349648E+03</pdfrwt>
<totfact> 0.44336947E+02</totfact>
</mgrwt>
</event>
<event>
12    1  0.2791583E-001  0.3299014E+03  0.7546771E-02  0.1071221E+00
         21   -1    0    0  502  503  0.00000000000E+00  0.00000000000E+00  0.34962518474E+04  0.34962518474E+04  0.00000000000E+00 0.  1.
         21   -1    0    0  503  504 -0.00000000000E+00 -0.00000000000E+00 -0.31329436089E+02  0.31329436089E+02  0.00000000000E+00 0.  1.
         -6    2    1    2    0  504 -0.26897423339E+03  0.81265908693E+02  0.18842456213E+04  0.19128447619E+04  0.17216920552E+03 0.  0.
        -24    2    3    3    0    0 -0.15771719271E+03  0.89652914209E+02  0.14860990226E+04  0.14993338490E+04  0.81236247571E+02 0.  0.
          6    2    1    2  502    0  0.26897423339E+03 -0.81265908693E+02  0.15806767899E+04  0.16147365216E+04  0.17286883396E+03 0.  0.
         24    2    5    5    0    0  0.13624848212E+03  0.16686872222E+02  0.69894026967E+03  0.71769011614E+03  0.87860694646E+02 0.  0.
          2    1    6    6  501    0 -0.10716298272E+02  0.64487443437E+01  0.10542491347E+03  0.10616420175E+03  0.00000000000E+00 0. -1.
         -1    1    6    6    0  501  0.14696478039E+03  0.10238127879E+02  0.59351535619E+03  0.61152591439E+03  0.00000000000E+00 0.  1.
          5    1    5    5  502    0  0.13272575127E+03 -0.97952780915E+02  0.88173652027E+03  0.89704640545E+03  0.47000000000E+01 0. -1.
         13    1    4    4    0    0  0.85727834177E+01  0.71026002805E+01  0.46548631961E+02  0.47861411218E+02  0.00000000000E+00 0. -1.
        -14    1    4    4    0    0 -0.16628997612E+03  0.82550313929E+02  0.14395503907E+04  0.14514724378E+04  0.00000000000E+00 0.  1.
         -5    1    3    3    0  504 -0.11125704068E+03 -0.83870055163E+01  0.39814659871E+03  0.41351091283E+03  0.47000000000E+01 0.  1.
<mgrwt>
<rscale>  2 0.32980982E+03</rscale>
<asrwt>0</asrwt>
<pdfrwt beam="1">  1       21 0.53788459E+00 0.32990138E+03</pdfrwt>
<pdfrwt beam="2">  1       21 0.48199160E-02 0.32990138E+03</pdfrwt>
<totfact> 0.24287612E+02</totfact>
</mgrwt>
</event>
<event>
12    1  0.2791583E-001  0.3308371E+03  0.7546771E-02  0.1070781E+00
         21   -1    0    0  502  503  0.00000000000E+00  0.00000000000E+00  0.19796933757E+03  0.19796933757E+03  0.00000000000E+00 0. -1.
         21   -1    0    0  503  504 -0.00000000000E+00 -0.00000000000E+00 -0.56312626746E+03  0.56312626746E+03  0.00000000000E+00 0.  1.
         -6    2    1    2    0  504  0.21947159862E+03  0.17721724366E+03 -0.23448896318E+03  0.40550987978E+03  0.17285674616E+03 0.  0.
        -24    2    3    3    0    0  0.18255368499E+03  0.14889099310E+03 -0.11005131187E+03  0.27257332393E+03  0.81795781936E+02 0.  0.
          6    2    1    2  502    0 -0.21947159862E+03 -0.17721724366E+03 -0.13066796671E+03  0.35558572526E+03  0.17260752136E+03 0.  0.
         24    2    5    5    0    0 -0.88867231561E+02 -0.53042695494E+02 -0.11556091785E+03  0.17467930737E+03  0.80297087739E+02 0.  0.
          2    1    6    6  501    0 -0.55243367151E+02  0.12776909390E+02 -0.43636167188E+02  0.71548543763E+02  0.00000000000E+00 0. -1.
         -1    1    6    6    0  501 -0.33623864409E+02 -0.65819604884E+02 -0.71924750657E+02  0.10313076361E+03  0.00000000000E+00 0.  1.
          5    1    5    5  502    0 -0.13060436706E+03 -0.12417454817E+03 -0.15107048863E+02  0.18090641789E+03  0.47000000000E+01 0. -1.
         13    1    4    4    0    0  0.69188710356E+02  0.99938558413E+01 -0.26322568801E+02  0.74698275908E+02  0.00000000000E+00 0. -1.
        -14    1    4    4    0    0  0.11336497464E+03  0.13889713726E+03 -0.83728743074E+02  0.19787504803E+03  0.00000000000E+00 0.  1.
         -5    1    3    3    0  504  0.36917913624E+02  0.28326250560E+02 -0.12443765131E+03  0.13293655585E+03  0.47000000000E+01 0.  1.
<mgrwt>
<rscale>  2 0.33080456E+03</rscale>
<asrwt>0</asrwt>
<pdfrwt beam="1">  1       21 0.30456821E-01 0.33083710E+03</pdfrwt>
<pdfrwt beam="2">  1       21 0.86634810E-01 0.33083710E+03</pdfrwt>
<totfact> 0.11031178E+04</totfact>
</mgrwt>
</event>
<event>
12    1  0.2791583E-001  0.1824914E+03  0.7546771E-02  0.1165535E+00
         21   -1    0    0  502  503  0.00000000000E+00  0.00000000000E+00  0.52017065378E+03  0.52017065378E+03  0.00000000000E+00 0.  1.
         21   -1    0    0  503  504 -0.00000000000E+00 -0.00000000000E+00 -0.74369973163E+02  0.74369973163E+02  0.00000000000E+00 0. -1.
         -6    2    1    2    0  504 -0.52551307003E+02 -0.20832215616E+02  0.11133156280E+03  0.21377053878E+03  0.17351514430E+03 0.  0.
        -24    2    3    3    0    0 -0.82868082431E+02  0.33405411626E+02  0.80923164946E+02  0.14443376830E+03  0.79558243995E+02 0.  0.
          6    2    1    2  502    0  0.52551307003E+02  0.20832215616E+02  0.33446911782E+03  0.38077008816E+03  0.17297586014E+03 0.  0.
         24    2    5    5    0    0  0.47418288195E+02 -0.38768873614E+02  0.11470677019E+03  0.15296267574E+03  0.80550713375E+02 0.  0.
          4    1    6    6  501    0 -0.15902502005E+02 -0.31468453821E+02  0.56759779277E+02  0.66819351235E+02  0.00000000000E+00 0. -1.
         -3    1    6    6    0  501  0.63320790200E+02 -0.73004197928E+01  0.57946990909E+02  0.86143324501E+02  0.00000000000E+00 0.  1.
          5    1    5    5  502    0  0.51330188079E+01  0.59601089230E+02  0.21976234763E+03  0.22780741243E+03  0.47000000000E+01 0. -1.
         11    1    4    4    0    0  0.60767423473E+01  0.67284482218E+01 -0.10670977318E+02  0.14002448712E+02  0.00000000000E+00 0. -1.
        -12    1    4    4    0    0 -0.88944824778E+02  0.26676963404E+02  0.91594142263E+02  0.13043131958E+03  0.00000000000E+00 0.  1.
         -5    1    3    3    0  504  0.30316775428E+02 -0.54237627242E+02  0.30408397851E+02  0.69336770483E+02  0.47000000000E+01 0.  1.
<mgrwt>
<rscale>  2 0.18236314E+03</rscale>
<asrwt>0</asrwt>
<pdfrwt beam="1">  1       21 0.80026252E-01 0.18249144E+03</pdfrwt>
<pdfrwt beam="2">  1       21 0.11441535E-01 0.18249144E+03</pdfrwt>
<totfact> 0.88179335E+04</totfact>
</mgrwt>
</event>
<event>
12    1  0.2791583E-001  0.1834101E+03  0.7546771E-02  0.1164786E+00
         21   -1    0    0  502  503  0.00000000000E+00  0.00000000000E+00  0.23177309861E+02  0.23177309861E+02  0.00000000000E+00 0. -1.
         21   -1    0    0  503  504 -0.00000000000E+00 -0.00000000000E+00 -0.17965286800E+04  0.17965286800E+04  0.00000000000E+00 0. -1.
         -6    2    1    2    0  504  0.10585407679E+02 -0.56736457869E+02 -0.12921205301E+04  0.13050726917E+04  0.17409247513E+03 0.  0.
        -24    2    3    3    0    0  0.20484422660E+02 -0.43457650343E+02 -0.34408746164E+03  0.35688330869E+03  0.81617006916E+02 0.  0.
          6    2    1    2  502    0 -0.10585407679E+02  0.56736457869E+02 -0.48123084002E+03  0.51463329811E+03  0.17301223548E+03 0.  0.
         24    2    5    5    0    0 -0.25975908071E+02 -0.29958258192E+02 -0.28475544450E+03  0.29927891031E+03  0.83126156866E+02 0.  0.
          2    1    6    6  501    0 -0.16851195520E+02 -0.35991632746E+02 -0.48200534427E+02  0.62471208867E+02  0.00000000000E+00 0. -1.
         -1    1    6    6    0  501 -0.91247125513E+01  0.60333745547E+01 -0.23655491007E+03  0.23680770145E+03  0.00000000000E+00 0.  1.
          5    1    5    5  502    0  0.15390500392E+02  0.86694716060E+02 -0.19647539553E+03  0.21535438779E+03  0.47000000000E+01 0. -1.
         11    1    4    4    0    0 -0.23393862943E+02 -0.44387833154E+02 -0.16265617665E+03  0.17021922441E+03  0.00000000000E+00 0. -1.
        -12    1    4    4    0    0  0.43878285603E+02  0.93018281138E+00 -0.18143128499E+03  0.18666408428E+03  0.00000000000E+00 0.  1.
         -5    1    3    3    0  504 -0.98990149807E+01 -0.13278807526E+02 -0.94803306844E+03  0.94818938302E+03  0.47000000000E+01 0.  1.
<mgrwt>
<rscale>  2 0.18315330E+03</rscale>
<asrwt>0</asrwt>
<pdfrwt beam="1">  1       21 0.35657394E-02 0.18341010E+03</pdfrwt>
<pdfrwt beam="2">  1       21 0.27638907E+00 0.18341010E+03</pdfrwt>
<totfact> 0.22365465E+04</totfact>
</mgrwt>
</event>
<event>
12    1  0.2791583E-001  0.1893348E+03  0.7546771E-02  0.1159110E+00
         21   -1    0    0  502  503  0.00000000000E+00  0.00000000000E+00  0.17047893290E+03  0.17047893290E+03  0.00000000000E+00 0.  1.
         21   -1    0    0  503  504 -0.00000000000E+00 -0.00000000000E+00 -0.28319952378E+03  0.28319952378E+03  0.00000000000E+00 0.  1.
         -6    2    1    2    0  504  0.26123848229E+02 -0.73393070707E+02  0.58955576558E+02  0.19809995392E+03  0.17233349489E+03 0.  0.
        -24    2    3    3    0    0  0.12219810788E+02 -0.10668991152E+03  0.79127739655E+02  0.15649456930E+03  0.81836972348E+02 0.  0.
          6    2    1    2  502    0 -0.26123848229E+02  0.73393070707E+02 -0.17167616744E+03  0.25557850277E+03  0.17256496266E+03 0.  0.
         24    2    5    5    0    0 -0.71307983781E+02  0.74749357855E+02 -0.81577661962E+02  0.15466628196E+03  0.81206211542E+02 0.  0.
          4    1    6    6  501    0 -0.48873836514E+02  0.32778147557E+02 -0.88801374940E+02  0.10653047941E+03  0.00000000000E+00 0. -1.
         -3    1    6    6    0  501 -0.22434147267E+02  0.41971210298E+02  0.72237129781E+01  0.48135802545E+02  0.00000000000E+00 0.  1.
          5    1    5    5  502    0  0.45184135552E+02 -0.13562871480E+01 -0.90098505474E+02  0.10091222081E+03  0.47000000000E+01 0. -1.
         11    1    4    4    0    0 -0.26550802052E+02 -0.68915805318E+01  0.10774454533E+02  0.29470796432E+02  0.00000000000E+00 0. -1.
        -12    1    4    4    0    0  0.38770612840E+02 -0.99798330984E+02  0.68353285122E+02  0.12702377287E+03  0.00000000000E+00 0.  1.
         -5    1    3    3    0  504  0.13904037440E+02  0.33296840809E+02 -0.20172163097E+02  0.41605384616E+02  0.47000000000E+01 0.  1.
<mgrwt>
<rscale>  2 0.18928204E+03</rscale>
<asrwt>0</asrwt>
<pdfrwt beam="1">  1       21 0.26227528E-01 0.18933480E+03</pdfrwt>
<pdfrwt beam="2">  1       21 0.43569157E-01 0.18933480E+03</pdfrwt>
<totfact> 0.70065390E+04</totfact>
</mgrwt>
</event>
<event>
12    1  0.2791583E-001  0.2687632E+03  0.7546771E-02  0.1102002E+00
         21   -1    0    0  502  503  0.00000000000E+00  0.00000000000E+00  0.42526266643E+03  0.42526266643E+03  0.00000000000E+00 0. -1.
         21   -1    0    0  503  504 -0.00000000000E+00 -0.00000000000E+00 -0.38455462533E+03  0.38455462533E+03  0.00000000000E+00 0.  1.
         -6    2    1    2    0  504  0.12751707169E+03  0.16111671323E+03 -0.28223019847E+03  0.38972755214E+03  0.17324687908E+03 0.  0.
        -24    2    3    3    0    0  0.46146290877E+02  0.12558012472E+03 -0.98805523477E+02  0.18588753033E+03  0.83016833097E+02 0.  0.
          6    2    1    2  502    0 -0.12751707169E+03 -0.16111671323E+03  0.32293823957E+03  0.42008973963E+03  0.17311003411E+03 0.  0.
         24    2    5    5    0    0 -0.68836463207E+01 -0.38855567029E+02  0.15860243618E+03  0.18233238966E+03  0.80828385372E+02 0.  0.
          4    1    6    6  501    0 -0.49907434134E+00  0.23046376703E+02  0.20467325162E+02  0.30826870643E+02  0.00000000000E+00 0. -1.
         -3    1    6    6    0  501 -0.63845719793E+01 -0.61901943733E+02  0.13813511102E+03  0.15150551902E+03  0.00000000000E+00 0.  1.
          5    1    5    5  502    0 -0.12063342537E+03 -0.12226114620E+03  0.16433580339E+03  0.23775734996E+03  0.47000000000E+01 0. -1.
         13    1    4    4    0    0  0.45755798762E+02  0.18073630736E+02 -0.39613020382E+02  0.63162018904E+02  0.00000000000E+00 0. -1.
        -14    1    4    4    0    0  0.39049211507E+00  0.10750649398E+03 -0.59192503095E+02  0.12272551143E+03  0.00000000000E+00 0.  1.
         -5    1    3    3    0  504  0.81370780815E+02  0.35536588509E+02 -0.18342467500E+03  0.20384002181E+03  0.47000000000E+01 0.  1.
<mgrwt>
<rscale>  2 0.26874119E+03</rscale>
<asrwt>0</asrwt>
<pdfrwt beam="1">  1       21 0.65425025E-01 0.26876324E+03</pdfrwt>
<pdfrwt beam="2">  1       21 0.59162251E-01 0.26876324E+03</pdfrwt>
<totfact> 0.54553624E+03</totfact>
</mgrwt>
</event>
<event>
12    1  0.2791583E-001  0.1937228E+03  0.7546771E-02  0.1155498E+00
         21   -1    0    0  502  503  0.00000000000E+00  0.00000000000E+00  0.97149079884E+02  0.97149079884E+02  0.00000000000E+00 0.  1.
         21   -1    0    0  503  504 -0.00000000000E+00 -0.00000000000E+00 -0.51183246622E+03  0.51183246622E+03  0.00000000000E+00 0.  1.
         -6    2    1    2    0  504 -0.16906833227E+02  0.80694828996E+02 -0.35939026581E+03  0.40752223515E+03  0.17353821640E+03 0.  0.
        -24    2    3    3    0    0  0.55694550763E+02  0.46884530599E+02 -0.16661991854E+03  0.19872426098E+03  0.80181621660E+02 0.  0.
          6    2    1    2  502    0  0.16906833227E+02 -0.80694828996E+02 -0.55293120523E+02  0.20145931095E+03  0.17530267640E+03 0.  0.
         24    2    5    5    0    0  0.73301681205E+02 -0.82571241828E+02 -0.44024850501E+02  0.14372748512E+03  0.80797624183E+02 0.  0.
          4    1    6    6  501    0  0.78410309666E+02 -0.48035852385E+02 -0.54980481064E+02  0.10713763612E+03  0.00000000000E+00 0. -1.
         -3    1    6    6    0  501 -0.51086284612E+01 -0.34535389443E+02  0.10955630562E+02  0.36589848999E+02  0.00000000000E+00 0.  1.
          5    1    5    5  502    0 -0.56394847978E+02  0.18764128324E+01 -0.11268270022E+02  0.57731825823E+02  0.47000000000E+01 0. -1.
         13    1    4    4    0    0  0.45712780627E+02 -0.13051092616E+02 -0.72795873157E+02  0.86943823702E+02  0.00000000000E+00 0. -1.
        -14    1    4    4    0    0  0.99817701356E+01  0.59935623215E+02 -0.93824045383E+02  0.11178043727E+03  0.00000000000E+00 0.  1.
         -5    1    3    3    0  504 -0.72601383990E+02  0.33810298397E+02 -0.19277034727E+03  0.20879797418E+03  0.47000000000E+01 0.  1.
<mgrwt>
<rscale>  2 0.19332276E+03</rscale>
<asrwt>0</asrwt>
<pdfrwt beam="1">  1       21 0.14946012E-01 0.19372280E+03</pdfrwt>
<pdfrwt beam="2">  1       21 0.78743457E-01 0.19372280E+03</pdfrwt>
<totfact> 0.56257884E+04</totfact>
</mgrwt>
</event>
<event>
12    1  0.2791583E-001  0.1829542E+03  0.7546771E-02  0.1165356E+00
         21   -1    0    0  502  503  0.00000000000E+00  0.00000000000E+00  0.27206725881E+03  0.27206725881E+03  0.00000000000E+00 0. -1.
         21   -1    0    0  503  504 -0.00000000000E+00 -0.00000000000E+00 -0.30935899132E+03  0.30935899132E+03  0.00000000000E+00 0. -1.
         -6    2    1    2    0  504 -0.26739645099E+02  0.47573830424E+02 -0.24488103390E+03  0.30472144826E+03  0.17294554722E+03 0.  0.
        -24    2    3    3    0    0  0.16779956421E+02  0.65596047436E+02 -0.23356910795E+03  0.25605107030E+03  0.80144956382E+02 0.  0.
          6    2    1    2  502    0  0.26739645099E+02 -0.47573830424E+02  0.20758930139E+03  0.27670480187E+03  0.17462517392E+03 0.  0.
         24    2    5    5    0    0  0.71942456420E+02 -0.70330114737E+02  0.17424098784E+03  0.21591547186E+03  0.78342370845E+02 0.  0.
          4    1    6    6  501    0 -0.23163096726E+01 -0.14639749807E+02  0.87916141189E+02  0.89156802581E+02  0.00000000000E+00 0. -1.
         -3    1    6    6    0  501  0.74258766092E+02 -0.55690364930E+02  0.86324846652E+02  0.12675866928E+03  0.00000000000E+00 0.  1.
          5    1    5    5  502    0 -0.45202811321E+02  0.22756284312E+02  0.33348313548E+02  0.60789330014E+02  0.47000000000E+01 0. -1.
         11    1    4    4    0    0 -0.81308906464E+01  0.61286456316E+01 -0.15075394461E+03  0.15109739738E+03  0.00000000000E+00 0. -1.
        -12    1    4    4    0    0  0.24910847068E+02  0.59467401804E+02 -0.82815163344E+02  0.10495367292E+03  0.00000000000E+00 0.  1.
         -5    1    3    3    0  504 -0.43519601521E+02 -0.18022217012E+02 -0.11311925952E+02  0.48670377965E+02  0.47000000000E+01 0.  1.
<mgrwt>
<rscale>  2 0.18255223E+03</rscale>
<asrwt>0</asrwt>
<pdfrwt beam="1">  1       21 0.41856501E-01 0.18295417E+03</pdfrwt>
<pdfrwt beam="2">  1       21 0.47593691E-01 0.18295417E+03</pdfrwt>
<totfact> 0.23323853E+04</totfact>
</mgrwt>
</event>
<event>
12    1  0.2791583E-001  0.1940959E+03  0.7546771E-02  0.1154974E+00
         21   -1    0    0  502  503  0.00000000000E+00  0.00000000000E+00  0.67809654725E+03  0.67809654725E+03  0.00000000000E+00 0. -1.
         21   -1    0    0  503  504 -0.00000000000E+00 -0.00000000000E+00 -0.91949073998E+02  0.91949073998E+02  0.00000000000E+00 0.  1.
         -6    2    1    2    0  504  0.68351617477E+02  0.53023346408E+02  0.50500102673E+02  0.20055795479E+03  0.17375216253E+03 0.  0.
        -24    2    3    3    0    0  0.51359130302E+02  0.10441202988E+02  0.95785471940E+02  0.13594496672E+03  0.80990112702E+02 0.  0.
          6    2    1    2  502    0 -0.68351617477E+02 -0.53023346408E+02  0.53564737058E+03  0.56948766645E+03  0.17295860129E+03 0.  0.
         24    2    5    5    0    0 -0.21800293698E+02 -0.97169737981E+02  0.33174938965E+03  0.35568306814E+03  0.80842913373E+02 0.  0.
          2    1    6    6  501    0 -0.47219005746E+02 -0.70945320405E+02  0.27745381116E+03  0.29024729166E+03  0.00000000000E+00 0. -1.
         -1    1    6    6    0  501  0.25418712048E+02 -0.26224417577E+02  0.54295578497E+02  0.65435776481E+02  0.00000000000E+00 0.  1.
          5    1    5    5  502    0 -0.46551323779E+02  0.44146391574E+02  0.20389798092E+03  0.21380459831E+03  0.47000000000E+01 0. -1.
         11    1    4    4    0    0  0.55911606695E+02 -0.21676534435E+02  0.42275489273E+02  0.73370272601E+02  0.00000000000E+00 0. -1.
        -12    1    4    4    0    0 -0.45524763932E+01  0.32117737423E+02  0.53509982668E+02  0.62574694115E+02  0.00000000000E+00 0.  1.
         -5    1    3    3    0  504  0.16992487175E+02  0.42582143420E+02 -0.45285369267E+02  0.64612988077E+02  0.47000000000E+01 0.  1.
<mgrwt>
<rscale>  2 0.19391818E+03</rscale>
<asrwt>0</asrwt>
<pdfrwt beam="1">  1       21 0.10432254E+00 0.19409594E+03</pdfrwt>
<pdfrwt beam="2">  1       21 0.14146012E-01 0.19409594E+03</pdfrwt>
<totfact> 0.32355235E+04</totfact>
</mgrwt>
</event>
<event>
12    1  0.2791583E-001  0.2236876E+03  0.7546771E-02  0.1131484E+00
         21   -1    0    0  502  503  0.00000000000E+00  0.00000000000E+00  0.25413186305E+03  0.25413186305E+03  0.00000000000E+00 0. -1.
         21   -1    0    0  503  504 -0.00000000000E+00 -0.00000000000E+00 -0.25108601801E+03  0.25108601801E+03  0.00000000000E+00 0.  1.
         -6    2    1    2    0  504  0.73145642155E+02 -0.11877228326E+03 -0.11748261240E+03  0.25266245154E+03  0.17486855053E+03 0.  0.
        -24    2    3    3    0    0  0.66149704786E+02 -0.55182586041E+02  0.16922948837E+01  0.11732087900E+03  0.79626776537E+02 0.  0.
          6    2    1    2  502    0 -0.73145642155E+02  0.11877228326E+03  0.12052845744E+03  0.25255542952E+03  0.17262675253E+03 0.  0.
         24    2    5    5    0    0 -0.81696469675E+02  0.90915625460E+02  0.15070138083E+03  0.21034636247E+03  0.81207893147E+02 0.  0.
          4    1    6    6  501    0 -0.66380794263E+02  0.10037923244E+03  0.15002832599E+03  0.19233018159E+03  0.00000000000E+00 0. -1.
         -3    1    6    6    0  501 -0.15315675412E+02 -0.94636069826E+01  0.67305484005E+00  0.18016180874E+02  0.00000000000E+00 0.  1.
          5    1    5    5  502    0  0.85508275205E+01  0.27856657800E+02 -0.30172923394E+02  0.42209067049E+02  0.47000000000E+01 0. -1.
         11    1    4    4    0    0 -0.10157097191E+02 -0.15558654344E+02  0.22178109492E+02  0.28932799536E+02  0.00000000000E+00 0. -1.
        -12    1    4    4    0    0  0.76306801977E+02 -0.39623931697E+02 -0.20485814608E+02  0.88388079463E+02  0.00000000000E+00 0.  1.
         -5    1    3    3    0  504  0.69959373688E+01 -0.63589697219E+02 -0.11917490728E+03  0.13534157254E+03  0.47000000000E+01 0.  1.
<mgrwt>
<rscale>  2 0.22324930E+03</rscale>
<asrwt>0</asrwt>
<pdfrwt beam="1">  1       21 0.39097210E-01 0.22368762E+03</pdfrwt>
<pdfrwt beam="2">  1       21 0.38628618E-01 0.22368762E+03</pdfrwt>
<totfact> 0.40137945E+04</totfact>
</mgrwt>
</event>
<event>
12    1  0.2791583E-001  0.2487817E+03  0.7546771E-02  0.1114121E+00
         21   -1    0    0  502  503  0.00000000000E+00  0.00000000000E+00  0.10941052281E+03  0.10941052281E+03  0.00000000000E+00 0.  1.
         21   -1    0    0  503  504 -0.00000000000E+00 -0.00000000000E+00 -0.63415711853E+03  0.63415711853E+03  0.00000000000E+00 0. -1.
         -6    2    1    2    0  504 -0.16873205096E+03 -0.57871933369E+02 -0.38522513909E+03  0.45857470249E+03  0.17341477527E+03 0.  0.
        -24    2    3    3    0    0 -0.43940063527E+02  0.17107663500E+02 -0.10029809945E+03  0.13857394000E+03  0.83184293958E+02 0.  0.
          6    2    1    2  502    0  0.16873205096E+03  0.57871933369E+02 -0.13952145662E+03  0.28499293885E+03  0.17301755010E+03 0.  0.
         24    2    5    5    0    0  0.19394495831E+03  0.62371219682E+02 -0.10891889361E+03  0.24481158575E+03  0.81022041658E+02 0.  0.
          2    1    6    6  501    0  0.86768651085E+02  0.21013301311E+02 -0.92860383860E+02  0.12881540488E+03  0.00000000000E+00 0. -1.
         -1    1    6    6    0  501  0.10717630722E+03  0.41357918370E+02 -0.16058509754E+02  0.11599618087E+03  0.00000000000E+00 0.  1.
          5    1    5    5  502    0 -0.25212907345E+02 -0.44992863126E+01 -0.30602563007E+02  0.40181353097E+02  0.47000000000E+01 0. -1.
         11    1    4    4    0    0 -0.39034658176E+02  0.19495425848E+02 -0.11494302184E+03  0.12294581911E+03  0.00000000000E+00 0. -1.
        -12    1    4    4    0    0 -0.49054053512E+01 -0.23877623479E+01  0.14644922390E+02  0.15628120888E+02  0.00000000000E+00 0.  1.
         -5    1    3    3    0  504 -0.12479198744E+03 -0.74979596869E+02 -0.28492703964E+03  0.32000076249E+03  0.47000000000E+01 0.  1.
<mgrwt>
<rscale>  2 0.24871252E+03</rscale>
<asrwt>0</asrwt>
<pdfrwt beam="1">  1       21 0.16832388E-01 0.24878173E+03</pdfrwt>
<pdfrwt beam="2">  1       21 0.97562635E-01 0.24878173E+03</pdfrwt>
<totfact> 0.26833550E+04</totfact>
</mgrwt>
</event>
<event>
12    1  0.2791583E-001  0.2803354E+03  0.7546771E-02  0.1095518E+00
         21   -1    0    0  502  503  0.00000000000E+00  0.00000000000E+00  0.32017862554E+03  0.32017862554E+03  0.00000000000E+00 0. -1.
         21   -1    0    0  503  504 -0.00000000000E+00 -0.00000000000E+00 -0.42831978632E+03  0.42831978632E+03  0.00000000000E+00 0.  1.
         -6    2    1    2    0  504  0.11603376125E+03 -0.18779561089E+03  0.19052436166E+03  0.33887783606E+03  0.17264886378E+03 0.  0.
        -24    2    3    3    0    0  0.33312443768E+02 -0.15155773494E+03  0.71397768586E+02  0.18931435389E+03  0.81626082234E+02 0.  0.
          6    2    1    2  502    0 -0.11603376125E+03  0.18779561089E+03 -0.29866552244E+03  0.40962057580E+03  0.17279148302E+03 0.  0.
         24    2    5    5    0    0 -0.14782257694E+03  0.17804826524E+03 -0.24810826839E+03  0.34892736789E+03  0.81485558300E+02 0.  0.
          4    1    6    6  501    0 -0.12158365016E+03  0.14312245732E+03 -0.14601295327E+03  0.23787896985E+03  0.00000000000E+00 0. -1.
         -3    1    6    6    0  501 -0.26238926776E+02  0.34925807922E+02 -0.10209531512E+03  0.11104839804E+03  0.00000000000E+00 0.  1.
          5    1    5    5  502    0  0.31788815685E+02  0.97473456554E+01 -0.50557254047E+02  0.60693207913E+02  0.47000000000E+01 0. -1.
         13    1    4    4    0    0  0.48123396826E+02 -0.15193889380E+03  0.71041853799E+02  0.17449422272E+03  0.00000000000E+00 0. -1.
        -14    1    4    4    0    0 -0.14810953058E+02  0.38115886410E+00  0.35591478662E+00  0.14820131170E+02  0.00000000000E+00 0.  1.
         -5    1    3    3    0  504  0.82721317483E+02 -0.36237875955E+02  0.11912659308E+03  0.14956348217E+03  0.47000000000E+01 0.  1.
<mgrwt>
<rscale>  2 0.28031340E+03</rscale>
<asrwt>0</asrwt>
<pdfrwt beam="1">  1       21 0.49258250E-01 0.28033537E+03</pdfrwt>
<pdfrwt beam="2">  1       21 0.65895352E-01 0.28033537E+03</pdfrwt>
<totfact> 0.78822680E+03</totfact>
</mgrwt>
</event>
<event>
12    1  0.2791583E-001  0.2035507E+03  0.7546771E-02  0.1147100E+00
         21   -1    0    0  502  503  0.00000000000E+00  0.00000000000E+00  0.51861703759E+03  0.51861703759E+03  0.00000000000E+00 0. -1.
         21   -1    0    0  503  504 -0.00000000000E+00 -0.00000000000E+00 -0.18055823858E+03  0.18055823858E+03  0.00000000000E+00 0. -1.
         -6    2    1    2    0  504  0.88333248598E+02  0.54339294736E+02 -0.93077159805E+02  0.22240372479E+03  0.17333360137E+03 0.  0.
        -24    2    3    3    0    0  0.63016465818E+02 -0.19191537724E+02 -0.98981806387E+02  0.14427128810E+03  0.81715460526E+02 0.  0.
          6    2    1    2  502    0 -0.88333248598E+02 -0.54339294736E+02  0.43113595882E+03  0.47677155138E+03  0.17514958024E+03 0.  0.
         24    2    5    5    0    0 -0.78942829513E+02  0.14615229513E+02  0.15232065460E+03  0.18936422675E+03  0.78814042464E+02 0.  0.
          4    1    6    6  501    0 -0.19615749614E+02 -0.25392058459E+01  0.11609152658E+03  0.11776445874E+03  0.00000000000E+00 0. -1.
         -3    1    6    6    0  501 -0.59327079899E+02  0.17154435359E+02  0.36229128024E+02  0.71599768011E+02  0.00000000000E+00 0.  1.
          5    1    5    5  502    0 -0.93904190848E+01 -0.68954524249E+02  0.27881530422E+03  0.28740732463E+03  0.47000000000E+01 0. -1.
         13    1    4    4    0    0  0.73334830345E+02  0.12472885389E+01 -0.46059197653E+02  0.86608329616E+02  0.00000000000E+00 0. -1.
        -14    1    4    4    0    0 -0.10318364527E+02 -0.20438826263E+02 -0.52922608734E+02  0.57662958481E+02  0.00000000000E+00 0.  1.
         -5    1    3    3    0  504  0.25316782780E+02  0.73530832460E+02  0.59046465823E+01  0.78132436695E+02  0.47000000000E+01 0.  1.
<mgrwt>
<rscale>  2 0.20315948E+03</rscale>
<asrwt>0</asrwt>
<pdfrwt beam="1">  1       21 0.79787236E-01 0.20355072E+03</pdfrwt>
<pdfrwt beam="2">  1       21 0.27778191E-01 0.20355072E+03</pdfrwt>
<totfact> 0.17002121E+04</totfact>
</mgrwt>
</event>
<event>
12    1  0.2791583E-001  0.1964040E+03  0.7546771E-02  0.1152953E+00
         21   -1    0    0  502  503  0.00000000000E+00  0.00000000000E+00  0.66702550884E+02  0.66702550884E+02  0.00000000000E+00 0. -1.
         21   -1    0    0  503  504 -0.00000000000E+00 -0.00000000000E+00 -0.59929964639E+03  0.59929964639E+03  0.00000000000E+00 0. -1.
         -6    2    1    2    0  504  0.24639737115E+02 -0.90219285524E+02 -0.33189812696E+03  0.38565644707E+03  0.17270753417E+03 0.  0.
        -24    2    3    3    0    0 -0.47100726162E+02 -0.48695117666E+02 -0.23941791365E+03  0.26137599631E+03  0.80042371145E+02 0.  0.
          6    2    1    2  502    0 -0.24639737115E+02  0.90219285524E+02 -0.20069896854E+03  0.28034575020E+03  0.17195065443E+03 0.  0.
         24    2    5    5    0    0 -0.41439693587E+02 -0.67299370080E+01 -0.90703089961E+02  0.13268880458E+03  0.87273868225E+02 0.  0.
          4    1    6    6  501    0 -0.46837354053E+02  0.30950377012E+02 -0.68705061436E+02  0.88724568406E+02  0.00000000000E+00 0. -1.
         -3    1    6    6    0  501  0.53976604658E+01 -0.37680314020E+02 -0.21998028526E+02  0.43964236172E+02  0.00000000000E+00 0.  1.
          5    1    5    5  502    0  0.16799956472E+02  0.96949222532E+02 -0.10999587858E+03  0.14765694562E+03  0.47000000000E+01 0. -1.
         13    1    4    4    0    0 -0.31494254914E+02 -0.69217832148E+02 -0.20282360329E+03  0.21661119646E+03  0.00000000000E+00 0. -1.
        -14    1    4    4    0    0 -0.15606471247E+02  0.20522714482E+02 -0.36594310358E+02  0.44764799844E+02  0.00000000000E+00 0.  1.
         -5    1    3    3    0  504  0.71740463277E+02 -0.41524167858E+02 -0.92480213313E+02  0.12428045076E+03  0.47000000000E+01 0.  1.
<mgrwt>
<rscale>  2 0.19623747E+03</rscale>
<asrwt>0</asrwt>
<pdfrwt beam="1">  1       21 0.10261931E-01 0.19640399E+03</pdfrwt>
<pdfrwt beam="2">  1       21 0.92199943E-01 0.19640399E+03</pdfrwt>
<totfact> 0.76871830E+04</totfact>
</mgrwt>
</event>
<event>
12    1  0.2791583E-001  0.3308504E+03  0.7546771E-02  0.1070901E+00
         21   -1    0    0  502  503  0.00000000000E+00  0.00000000000E+00  0.22367034342E+03  0.22367034342E+03  0.00000000000E+00 0. -1.
         21   -1    0    0  503  504 -0.00000000000E+00 -0.00000000000E+00 -0.52290216444E+03  0.52290216444E+03  0.00000000000E+00 0.  1.
         -6    2    1    2    0  504  0.28020808737E+03 -0.28599313240E+02 -0.24645665496E+03  0.41153932913E+03  0.17114100533E+03 0.  0.
        -24    2    3    3    0    0  0.19510784836E+03 -0.53642740063E+02 -0.99229209459E+02  0.23958807263E+03  0.81310469689E+02 0.  0.
          6    2    1    2  502    0 -0.28020808737E+03  0.28599313240E+02 -0.52775166072E+02  0.33503317872E+03  0.17357280820E+03 0.  0.
         24    2    5    5    0    0 -0.14404529988E+03  0.51104608212E+02  0.29458057428E+02  0.17431234607E+03  0.78462012778E+02 0.  0.
          2    1    6    6  501    0 -0.88981619091E+02  0.46895738457E+02 -0.17167328410E+02  0.10203752244E+03  0.00000000000E+00 0. -1.
         -1    1    6    6    0  501 -0.55063680786E+02  0.42088697556E+01  0.46625385839E+02  0.72274823632E+02  0.00000000000E+00 0.  1.
          5    1    5    5  502    0 -0.13616278750E+03 -0.22505294972E+02 -0.82233223500E+02  0.16072083265E+03  0.47000000000E+01 0. -1.
         11    1    4    4    0    0  0.43214484732E+02 -0.49448229618E+02 -0.37101975684E+02  0.75426624627E+02  0.00000000000E+00 0. -1.
        -12    1    4    4    0    0  0.15189336363E+03 -0.41945104457E+01 -0.62127233775E+02  0.16416144800E+03  0.00000000000E+00 0.  1.
         -5    1    3    3    0  504  0.85100239013E+02  0.25043426823E+02 -0.14722744550E+03  0.17195125651E+03  0.47000000000E+01 0.  1.
<mgrwt>
<rscale>  2 0.33053266E+03</rscale>
<asrwt>0</asrwt>
<pdfrwt beam="1">  1       21 0.34410822E-01 0.33085044E+03</pdfrwt>
<pdfrwt beam="2">  1       21 0.80446486E-01 0.33085044E+03</pdfrwt>
<totfact> 0.10268163E+04</totfact>
</mgrwt>
</event>
<event>
12    1  0.2791583E-001  0.2119956E+03  0.7546771E-02  0.1140517E+00
         21   -1    0    0  502  503  0.00000000000E+00  0.00000000000E+00  0.80885702065E+03  0.80885702065E+03  0.00000000000E+00 0.  1.
         21   -1    0    0  503  504 -0.00000000000E+00 -0.00000000000E+00 -0.86231065990E+02  0.86231065990E+02  0.00000000000E+00 0. -1.
         -6    2    1    2    0  504 -0.10250629558E+03 -0.63892094398E+02  0.89974706716E+02  0.22786268217E+03  0.17098600445E+03 0.  0.
        -24    2    3    3    0    0 -0.78971192166E+01  0.40237085931E+00  0.78986925347E+02  0.11285183114E+03  0.80212686164E+02 0.  0.
          6    2    1    2  502    0  0.10250629558E+03  0.63892094398E+02  0.63265124795E+03  0.66722540447E+03  0.17421939755E+03 0.  0.
         24    2    5    5    0    0 -0.13572755730E+02  0.84523987707E+01  0.28012221003E+03  0.29192989613E+03  0.80616058955E+02 0.  0.
          4    1    6    6  501    0 -0.40077364865E+01 -0.35697918585E+02  0.14804230318E+03  0.15233819899E+03  0.00000000000E+00 0. -1.
         -3    1    6    6    0  501 -0.95650192433E+01  0.44150317356E+02  0.13207990685E+03  0.13959169714E+03  0.00000000000E+00 0.  1.
          5    1    5    5  502    0  0.11607905131E+03  0.55439695627E+02  0.35252903792E+03  0.37529550834E+03  0.47000000000E+01 0. -1.
         11    1    4    4    0    0 -0.32326298337E+02 -0.26682223888E+02  0.28989155105E+02  0.50963729745E+02  0.00000000000E+00 0. -1.
        -12    1    4    4    0    0  0.24429179120E+02  0.27084594747E+02  0.49997770242E+02  0.61888101395E+02  0.00000000000E+00 0.  1.
         -5    1    3    3    0  504 -0.94609176366E+02 -0.64294465257E+02  0.10987781369E+02  0.11501085103E+03  0.47000000000E+01 0.  1.
<mgrwt>
<rscale>  2 0.21133020E+03</rscale>
<asrwt>0</asrwt>
<pdfrwt beam="1">  1       21 0.12443954E+00 0.21199561E+03</pdfrwt>
<pdfrwt beam="2">  1       21 0.13266318E-01 0.21199561E+03</pdfrwt>
<totfact> 0.23362166E+04</totfact>
</mgrwt>
</event>
<event>
12    1  0.2791583E-001  0.2044278E+03  0.7546771E-02  0.1147180E+00
         21   -1    0    0  502  503  0.00000000000E+00  0.00000000000E+00  0.11250545122E+03  0.11250545122E+03  0.00000000000E+00 0. -1.
         21   -1    0    0  503  504 -0.00000000000E+00 -0.00000000000E+00 -0.78363728811E+03  0.78363728811E+03  0.00000000000E+00 0. -1.
         -6    2    1    2    0  504 -0.40461541437E+02  0.87640537176E+02 -0.66226331097E+03  0.69152265508E+03  0.17404852582E+03 0.  0.
        -24    2    3    3    0    0  0.84305019607E+01  0.59383218097E+02 -0.59667462867E+03  0.60484582291E+03  0.78869620496E+02 0.  0.
          6    2    1    2  502    0  0.40461541437E+02 -0.87640537176E+02 -0.88685259180E+01  0.20462008425E+03  0.18020190908E+03 0.  0.
         24    2    5    5    0    0  0.20592058489E+02  0.25180852763E+01  0.48636485498E+02  0.95751861648E+02  0.79828175860E+02 0.  0.
          4    1    6    6  501    0  0.44184560225E+02 -0.11200803597E+02  0.72175763123E+01  0.46150046276E+02  0.00000000000E+00 0. -1.
         -3    1    6    6    0  501 -0.23592501735E+02  0.13718888873E+02  0.41418909186E+02  0.49601815372E+02  0.00000000000E+00 0.  1.
          5    1    5    5  502    0  0.19869482948E+02 -0.90158622453E+02 -0.57505011416E+02  0.10886822261E+03  0.47000000000E+01 0. -1.
         11    1    4    4    0    0  0.42379678465E+02  0.24379859009E+02 -0.34992832559E+03  0.35332739453E+03  0.00000000000E+00 0. -1.
        -12    1    4    4    0    0 -0.33949176505E+02  0.35003359088E+02 -0.24674630308E+03  0.25151842838E+03  0.00000000000E+00 0.  1.
         -5    1    3    3    0  504 -0.48892043398E+02  0.28257319080E+02 -0.65588682300E+02  0.86676832170E+02  0.47000000000E+01 0.  1.
<mgrwt>
<rscale>  2 0.20306347E+03</rscale>
<asrwt>0</asrwt>
<pdfrwt beam="1">  1       21 0.17308532E-01 0.20442781E+03</pdfrwt>
<pdfrwt beam="2">  1       21 0.12055958E+00 0.20442781E+03</pdfrwt>
<totfact> 0.15632290E+04</totfact>
</mgrwt>
</event>
<event>
12    1  0.2791583E-001  0.2151200E+03  0.7546771E-02  0.1137648E+00
         21   -1    0    0  502  503  0.00000000000E+00  0.00000000000E+00  0.13907692489E+03  0.13907692489E+03  0.00000000000E+00 0.  1.
         21   -1    0    0  503  504 -0.00000000000E+00 -0.00000000000E+00 -0.45055745814E+03  0.45055745814E+03  0.00000000000E+00 0. -1.
         -6    2    1    2    0  504 -0.53600251296E+02  0.11604735196E+03 -0.30698092186E+03  0.37485184373E+03  0.17302208971E+03 0.  0.
        -24    2    3    3    0    0  0.13406232012E+02  0.24396804951E+02 -0.20618115977E+03  0.22295591354E+03  0.80148222628E+02 0.  0.
          6    2    1    2  502    0  0.53600251296E+02 -0.11604735196E+03 -0.44996113991E+01  0.21478253930E+03  0.17254366940E+03 0.  0.
         24    2    5    5    0    0  0.52375256359E+02 -0.12547322968E+03 -0.51836413100E+02  0.16627263743E+03  0.80454194362E+02 0.  0.
          4    1    6    6  501    0 -0.26693546124E+01 -0.74466807352E+02  0.95416964884E+00  0.74520744031E+02  0.00000000000E+00 0. -1.
         -3    1    6    6    0  501  0.55044610972E+02 -0.51006422330E+02 -0.52790582749E+02  0.91751893402E+02  0.00000000000E+00 0.  1.
          5    1    5    5  502    0  0.12249949365E+01  0.94258777259E+01  0.47336801701E+02  0.48509901863E+02  0.47000000000E+01 0. -1.
         11    1    4    4    0    0 -0.12664932731E+02  0.19549460873E+02 -0.19096926018E+03  0.19238461548E+03  0.00000000000E+00 0. -1.
        -12    1    4    4    0    0  0.26071164743E+02  0.48473440780E+01 -0.15211899588E+02  0.30571298055E+02  0.00000000000E+00 0.  1.
         -5    1    3    3    0  504 -0.67006483307E+02  0.91650547004E+02 -0.10079976209E+03  0.15189593019E+03  0.47000000000E+01 0.  1.
<mgrwt>
<rscale>  2 0.21502379E+03</rscale>
<asrwt>0</asrwt>
<pdfrwt beam="1">  1       21 0.21396450E-01 0.21512001E+03</pdfrwt>
<pdfrwt beam="2">  1       21 0.69316532E-01 0.21512001E+03</pdfrwt>
<totfact> 0.38068659E+04</totfact>
</mgrwt>
</event>
<event>
12    1  0.2791583E-001  0.1968144E+03  0.7546771E-02  0.1153327E+00
         21   -1    0    0  502  503  0.00000000000E+00  0.00000000000E+00  0.62255635157E+03  0.62255635157E+03  0.00000000000E+00 0. -1.
         21   -1    0    0  503  504 -0.00000000000E+00 -0.00000000000E+00 -0.22121525092E+03  0.22121525092E+03  0.00000000000E+00 0. -1.
         -6    2    1    2    0  504 -0.78196813939E+02 -0.33223277590E+02 -0.15783619844E+03  0.25228587684E+03  0.17753132183E+03 0.  0.
        -24    2    3    3    0    0 -0.11543568089E+03 -0.57078466302E+02 -0.12335794440E+03  0.19601294159E+03  0.81366719765E+02 0.  0.
          6    2    1    2  502    0  0.78196813939E+02  0.33223277590E+02  0.55917729909E+03  0.59148572565E+03  0.17308259286E+03 0.  0.
         24    2    5    5    0    0  0.70367372918E+02  0.77261405257E+02  0.28869557426E+03  0.31729033856E+03  0.80044565304E+02 0.  0.
          4    1    6    6  501    0  0.84343130596E+02  0.78629572516E+02  0.27226496601E+03  0.29567648717E+03  0.00000000000E+00 0. -1.
         -3    1    6    6    0  501 -0.13975757677E+02 -0.13681672598E+01  0.16430608251E+02  0.21613851388E+02  0.00000000000E+00 0.  1.
          5    1    5    5  502    0  0.78294410211E+01 -0.44038127666E+02  0.27048172483E+03  0.27419538709E+03  0.47000000000E+01 0. -1.
         11    1    4    4    0    0 -0.81445277933E+02 -0.24468687034E+01 -0.96474470018E+02  0.12628002150E+03  0.00000000000E+00 0. -1.
        -12    1    4    4    0    0 -0.33990402957E+02 -0.54631597598E+02 -0.26883474377E+02  0.69732920088E+02  0.00000000000E+00 0.  1.
         -5    1    3    3    0  504  0.37238866951E+02  0.23855188712E+02 -0.34478254043E+02  0.56272935254E+02  0.47000000000E+01 0.  1.
<mgrwt>
<rscale>  2 0.19580582E+03</rscale>
<asrwt>0</asrwt>
<pdfrwt beam="1">  1       21 0.95777900E-01 0.19681437E+03</pdfrwt>
<pdfrwt beam="2">  1       21 0.34033116E-01 0.19681437E+03</pdfrwt>
<totfact> 0.75368916E+03</totfact>
</mgrwt>
</event>
<event>
12    1  0.2791583E-001  0.1819960E+03  0.7546771E-02  0.1167293E+00
         21   -1    0    0  502  503  0.00000000000E+00  0.00000000000E+00  0.30779311875E+03  0.30779311875E+03  0.00000000000E+00 0. -1.
         21   -1    0    0  503  504 -0.00000000000E+00 -0.00000000000E+00 -0.10442869489E+03  0.10442869489E+03  0.00000000000E+00 0. -1.
         -6    2    1    2    0  504  0.50171730433E+01 -0.31443539494E+02  0.11274359274E+03  0.21408797987E+03  0.17918894279E+03 0.  0.
        -24    2    3    3    0    0 -0.26354333135E+01 -0.72436071611E+02  0.13094380053E+03  0.16834644910E+03  0.77073458788E+02 0.  0.
          6    2    1    2  502    0 -0.50171730433E+01  0.31443539494E+02  0.90620831125E+02  0.19813383377E+03  0.17329458402E+03 0.  0.
         24    2    5    5    0    0 -0.30817435102E+02 -0.10173352396E+02  0.11432805432E+03  0.14352850761E+03  0.80475568258E+02 0.  0.
          4    1    6    6  501    0 -0.26860236274E+02 -0.42202546406E+02  0.45988772298E+02  0.67952147820E+02  0.00000000000E+00 0. -1.
         -3    1    6    6    0  501 -0.39571988279E+01  0.32029194010E+02  0.68339282026E+02  0.75576359792E+02  0.00000000000E+00 0.  1.
          5    1    5    5  502    0  0.25800262059E+02  0.41616891891E+02 -0.23707223199E+02  0.54605326158E+02  0.47000000000E+01 0. -1.
         11    1    4    4    0    0  0.33860412317E+02 -0.49415242629E+02  0.94394928037E+02  0.11179801503E+03  0.00000000000E+00 0. -1.
        -12    1    4    4    0    0 -0.36495845630E+02 -0.23020828982E+02  0.36548872492E+02  0.56548434070E+02  0.00000000000E+00 0.  1.
         -5    1    3    3    0  504  0.76526063568E+01  0.40992532117E+02 -0.18200207788E+02  0.45741530767E+02  0.47000000000E+01 0.  1.
<mgrwt>
<rscale>  2 0.18052824E+03</rscale>
<asrwt>0</asrwt>
<pdfrwt beam="1">  1       21 0.47352787E-01 0.18199600E+03</pdfrwt>
<pdfrwt beam="2">  1       21 0.16065953E-01 0.18199600E+03</pdfrwt>
<totfact> 0.14814991E+05</totfact>
</mgrwt>
</event>
<event>
12    1  0.2791583E-001  0.1948867E+03  0.7546771E-02  0.1154266E+00
         21   -1    0    0  502  503  0.00000000000E+00  0.00000000000E+00  0.50055375274E+02  0.50055375274E+02  0.00000000000E+00 0.  1.
         21   -1    0    0  503  504 -0.00000000000E+00 -0.00000000000E+00 -0.12812272815E+04  0.12812272815E+04  0.00000000000E+00 0.  1.
         -6    2    1    2    0  504  0.54090492655E+01 -0.88316415437E+02 -0.10422483283E+04  0.10603124124E+04  0.17364269885E+03 0.  0.
        -24    2    3    3    0    0 -0.60142126118E+02 -0.78324687317E+02 -0.64582435058E+03  0.65835364413E+03  0.81170172871E+02 0.  0.
          6    2    1    2  502    0 -0.54090492655E+01  0.88316415437E+02 -0.18892357786E+03  0.27097024437E+03  0.17292688632E+03 0.  0.
         24    2    5    5    0    0 -0.45957881638E+02  0.21196591543E+02 -0.16407625915E+03  0.18857632582E+03  0.77965309374E+02 0.  0.
          2    1    6    6  501    0 -0.26942809373E+02  0.31772430615E+02 -0.16135822208E+03  0.16664896687E+03  0.00000000000E+00 0. -1.
         -1    1    6    6    0  501 -0.19015072264E+02 -0.10575839072E+02 -0.27180370697E+01  0.21927358956E+02  0.00000000000E+00 0.  1.
          5    1    5    5  502    0  0.40548832372E+02  0.67119823894E+02 -0.24847318705E+02  0.82393918545E+02  0.47000000000E+01 0. -1.
         11    1    4    4    0    0 -0.24401102001E+02 -0.80805858359E+02 -0.54172151668E+03  0.54825833524E+03  0.00000000000E+00 0. -1.
        -12    1    4    4    0    0 -0.35741024117E+02  0.24811710412E+01 -0.10410283390E+03  0.11009530889E+03  0.00000000000E+00 0.  1.
         -5    1    3    3    0  504  0.65551175383E+02 -0.99917281200E+01 -0.39642397775E+03  0.40195876823E+03  0.47000000000E+01 0.  1.
<mgrwt>
<rscale>  2 0.19472715E+03</rscale>
<asrwt>0</asrwt>
<pdfrwt beam="1">  1       21 0.77008264E-02 0.19488672E+03</pdfrwt>
<pdfrwt beam="2">  1       21 0.19711190E+00 0.19488672E+03</pdfrwt>
<totfact> 0.17939849E+04</totfact>
</mgrwt>
</event>
<event>
12    1  0.2791583E-001  0.2181857E+03  0.7546771E-02  0.1135268E+00
         21   -1    0    0  502  503  0.00000000000E+00  0.00000000000E+00  0.15642949684E+03  0.15642949684E+03  0.00000000000E+00 0. -1.
         21   -1    0    0  503  504 -0.00000000000E+00 -0.00000000000E+00 -0.30645481913E+03  0.30645481913E+03  0.00000000000E+00 0.  1.
         -6    2    1    2    0  504  0.99193885027E+02 -0.85951565910E+02 -0.54909548611E+02  0.22498898232E+03  0.17429252746E+03 0.  0.
        -24    2    3    3    0    0  0.10275600828E+03 -0.71758923065E+02  0.13983002911E+02  0.15440291083E+03  0.89087564932E+02 0.  0.
          6    2    1    2  502    0 -0.99193885027E+02  0.85951565910E+02 -0.95115773679E+02  0.23789533364E+03  0.17412662306E+03 0.  0.
         24    2    5    5    0    0 -0.12929198568E+03  0.98091224832E+02 -0.60522821097E+02  0.19022952461E+03  0.78650837315E+02 0.  0.
          2    1    6    6  501    0  0.40195172136E+01 -0.79152114530E+01  0.14280664745E+01  0.89914662226E+01  0.00000000000E+00 0. -1.
         -1    1    6    6    0  501 -0.13331150290E+03  0.10600643629E+03 -0.61950887572E+02  0.18123805839E+03  0.00000000000E+00 0.  1.
          5    1    5    5  502    0  0.30098100658E+02 -0.12139658922E+02 -0.34592952582E+02  0.47665809028E+02  0.47000000000E+01 0. -1.
         13    1    4    4    0    0  0.30047709648E+02 -0.45892060717E+02  0.45277508524E+02  0.71126639665E+02  0.00000000000E+00 0. -1.
        -14    1    4    4    0    0  0.72708298632E+02 -0.25866862348E+02 -0.31294505612E+02  0.83276271166E+02  0.00000000000E+00 0.  1.
         -5    1    3    3    0  504 -0.35621232534E+01 -0.14192642845E+02 -0.68892551523E+02  0.70586071489E+02  0.47000000000E+01 0.  1.
<mgrwt>
<rscale>  2 0.21815253E+03</rscale>
<asrwt>0</asrwt>
<pdfrwt beam="1">  1       21 0.24066077E-01 0.21818566E+03</pdfrwt>
<pdfrwt beam="2">  1       21 0.47146894E-01 0.21818566E+03</pdfrwt>
<totfact> 0.69330233E+04</totfact>
</mgrwt>
</event>
<event>
12    1  0.2791583E-001  0.2325780E+03  0.7546771E-02  0.1125231E+00
         21   -1    0    0  502  503  0.00000000000E+00  0.00000000000E+00  0.36541581774E+03  0.36541581774E+03  0.00000000000E+00 0.  1.
         21   -1    0    0  503  504 -0.00000000000E+00 -0.00000000000E+00 -0.18416862981E+03  0.18416862981E+03  0.00000000000E+00 0. -1.
         -6    2    1    2    0  504 -0.13306724191E+03 -0.83389642347E+02 -0.33136385628E+02  0.23492663682E+03  0.17155693316E+03 0.  0.
        -24    2    3    3    0    0 -0.97189915492E+02 -0.10638777275E+03  0.19960001416E+02  0.16668139618E+03  0.81363679325E+02 0.  0.
          6    2    1    2  502    0  0.13306724191E+03  0.83389642347E+02  0.21438357356E+03  0.31465781073E+03  0.16848886587E+03 0.  0.
         24    2    5    5    0    0  0.23230230695E+02 -0.62222714339E+01  0.11078370616E+03  0.13901759139E+03  0.80464283298E+02 0.  0.
          4    1    6    6  501    0  0.39570191133E+02 -0.30131849558E+02  0.91747594117E+02  0.10436162806E+03  0.00000000000E+00 0. -1.
         -3    1    6    6    0  501 -0.16339960439E+02  0.23909578124E+02  0.19036112039E+02  0.34655963336E+02  0.00000000000E+00 0.  1.
          5    1    5    5  502    0  0.10983701121E+03  0.89611913781E+02  0.10359986740E+03  0.17564021934E+03  0.47000000000E+01 0. -1.
         13    1    4    4    0    0 -0.70328541508E+02 -0.36918585282E+02 -0.20344773368E+02  0.81993874730E+02  0.00000000000E+00 0. -1.
        -14    1    4    4    0    0 -0.26861373984E+02 -0.69469187464E+02  0.40304774784E+02  0.84687521451E+02  0.00000000000E+00 0.  1.
         -5    1    3    3    0  504 -0.35877326416E+02  0.22998130399E+02 -0.53096387044E+02  0.68245240638E+02  0.47000000000E+01 0.  1.
<mgrwt>
<rscale>  2 0.23201245E+03</rscale>
<asrwt>0</asrwt>
<pdfrwt beam="1">  1       21 0.56217818E-01 0.23257795E+03</pdfrwt>
<pdfrwt beam="2">  1       21 0.28333635E-01 0.23257795E+03</pdfrwt>
<totfact> 0.34749777E+04</totfact>
</mgrwt>
</event>
<event>
12    1  0.2791583E-001  0.1850603E+03  0.7546771E-02  0.1163051E+00
         21   -1    0    0  502  503  0.00000000000E+00  0.00000000000E+00  0.66092497005E+03  0.66092497005E+03  0.00000000000E+00 0. -1.
         21   -1    0    0  503  504 -0.00000000000E+00 -0.00000000000E+00 -0.54178622113E+02  0.54178622113E+02  0.00000000000E+00 0. -1.
         -6    2    1    2    0  504 -0.58557609670E+02  0.26908675553E+02  0.37928561414E+03  0.42202473228E+03  0.17347687769E+03 0.  0.
        -24    2    3    3    0    0 -0.78925388850E+02 -0.30041671179E+02  0.30089079030E+03  0.32289841475E+03  0.81218221789E+02 0.  0.
          6    2    1    2  502    0  0.58557609670E+02 -0.26908675553E+02  0.22746073380E+03  0.29307885989E+03  0.17321594101E+03 0.  0.
         24    2    5    5    0    0  0.54833710269E+02 -0.82815267799E+02  0.14423726734E+03  0.19264156675E+03  0.80257582736E+02 0.  0.
          2    1    6    6  501    0  0.72457351693E+02 -0.79009150994E+02  0.10803231923E+03  0.15219558388E+03  0.00000000000E+00 0. -1.
         -1    1    6    6    0  501 -0.17623641424E+02 -0.38061168049E+01  0.36204948115E+02  0.40445982868E+02  0.00000000000E+00 0.  1.
          5    1    5    5  502    0  0.37238994008E+01  0.55906592246E+02  0.83223466458E+02  0.10043729314E+03  0.47000000000E+01 0. -1.
         11    1    4    4    0    0 -0.41305338816E+00  0.11026626467E+02  0.12940561855E+03  0.12987521402E+03  0.00000000000E+00 0. -1.
        -12    1    4    4    0    0 -0.78512335461E+02 -0.41068297646E+02  0.17148517174E+03  0.19302320073E+03  0.00000000000E+00 0.  1.
         -5    1    3    3    0  504  0.20367779180E+02  0.56950346732E+02  0.78394823839E+02  0.99126317527E+02  0.47000000000E+01 0.  1.
<mgrwt>
<rscale>  2 0.18499908E+03</rscale>
<asrwt>0</asrwt>
<pdfrwt beam="1">  1       21 0.10168076E+00 0.18506025E+03</pdfrwt>
<pdfrwt beam="2">  1       21 0.83351731E-02 0.18506025E+03</pdfrwt>
<totfact> 0.88432011E+04</totfact>
</mgrwt>
</event>
<event>
12    1  0.2791583E-001  0.1831684E+03  0.7546771E-02  0.1164840E+00
         21   -1    0    0  502  503  0.00000000000E+00  0.00000000000E+00  0.20904068422E+03  0.20904068422E+03  0.00000000000E+00 0. -1.
         21   -1    0    0  503  504 -0.00000000000E+00 -0.00000000000E+00 -0.16924594342E+03  0.16924594342E+03  0.00000000000E+00 0.  1.
         -6    2    1    2    0  504  0.13194229948E+02  0.58370356786E+02 -0.23735237866E+02  0.18441367362E+03  0.17281161779E+03 0.  0.
        -24    2    3    3    0    0  0.46295317917E+02  0.92844947820E+02  0.20483747661E+00  0.13075366375E+03  0.79580385950E+02 0.  0.
          6    2    1    2  502    0 -0.13194229948E+02 -0.58370356786E+02  0.63529978661E+02  0.19387295403E+03  0.17311694850E+03 0.  0.
         24    2    5    5    0    0 -0.60292680999E+02 -0.80596537547E+02  0.52233269541E+02  0.14037554437E+03  0.82740375662E+02 0.  0.
          2    1    6    6  501    0 -0.61614553176E+02 -0.13840715851E+02  0.20060988985E+02  0.66259805745E+02  0.00000000000E+00 0. -1.
         -1    1    6    6    0  501  0.13218721763E+01 -0.66755821695E+02  0.32172280557E+02  0.74115738629E+02  0.00000000000E+00 0.  1.
          5    1    5    5  502    0  0.47098451052E+02  0.22226180761E+02  0.11296709120E+02  0.53497409653E+02  0.47000000000E+01 0. -1.
         13    1    4    4    0    0  0.58210344381E+02  0.70549961344E+02 -0.25243211855E+02  0.94883934274E+02  0.00000000000E+00 0. -1.
        -14    1    4    4    0    0 -0.11915026463E+02  0.22294986476E+02  0.25448049332E+02  0.35869729472E+02  0.00000000000E+00 0.  1.
         -5    1    3    3    0  504 -0.33101087970E+02 -0.34474591034E+02 -0.23940075343E+02  0.53660009869E+02  0.47000000000E+01 0.  1.
<mgrwt>
<rscale>  2 0.18309622E+03</rscale>
<asrwt>0</asrwt>
<pdfrwt beam="1">  1       21 0.32160105E-01 0.18316840E+03</pdfrwt>
<pdfrwt beam="2">  1       21 0.26037838E-01 0.18316840E+03</pdfrwt>
<totfact> 0.13074622E+05</totfact>
</mgrwt>
</event>
<event>
12    1  0.2791583E-001  0.1906361E+03  0.7546771E-02  0.1158439E+00
         21   -1    0    0  502  503  0.00000000000E+00  0.00000000000E+00  0.36500101306E+03  0.36500101306E+03  0.00000000000E+00 0. -1.
         21   -1    0    0  503  504 -0.00000000000E+00 -0.00000000000E+00 -0.98345115527E+02  0.98345115527E+02  0.00000000000E+00 0. -1.
         -6    2    1    2    0  504 -0.69862838426E+02  0.38761366119E+02  0.13915144268E+03  0.23601959129E+03  0.17308628998E+03 0.  0.
        -24    2    3    3    0    0 -0.23057076118E+01  0.52468254042E+02  0.13707479164E+03  0.16689472471E+03  0.79411061342E+02 0.  0.
          6    2    1    2  502    0  0.69862838426E+02 -0.38761366119E+02  0.12750445486E+03  0.22732653730E+03  0.17040161048E+03 0.  0.
         24    2    5    5    0    0  0.97931310308E+02 -0.71135194213E+02  0.91723020478E+02  0.17130596156E+03  0.79258202020E+02 0.  0.
          2    1    6    6  501    0  0.64088987722E+02 -0.12124631755E+02  0.11683881870E+02  0.66264003335E+02  0.00000000000E+00 0. -1.
         -1    1    6    6    0  501  0.33842322587E+02 -0.59010562458E+02  0.80039138608E+02  0.10504195823E+03  0.00000000000E+00 0.  1.
          5    1    5    5  502    0 -0.28068471883E+02  0.32373828094E+02  0.35781434382E+02  0.56020575736E+02  0.47000000000E+01 0. -1.
         11    1    4    4    0    0 -0.28243761251E+02  0.30158058285E+02  0.12325468312E+03  0.12999590548E+03  0.00000000000E+00 0. -1.
        -12    1    4    4    0    0  0.25938053639E+02  0.22310195757E+02  0.13820108514E+02  0.36898819231E+02  0.00000000000E+00 0.  1.
         -5    1    3    3    0  504 -0.67557130814E+02 -0.13706887923E+02  0.20766510398E+01  0.69124866582E+02  0.47000000000E+01 0.  1.
<mgrwt>
<rscale>  2 0.19002462E+03</rscale>
<asrwt>0</asrwt>
<pdfrwt beam="1">  1       21 0.56154001E-01 0.19063610E+03</pdfrwt>
<pdfrwt beam="2">  1       21 0.15130018E-01 0.19063610E+03</pdfrwt>
<totfact> 0.11535441E+05</totfact>
</mgrwt>
</event>
<event>
12    1  0.2791583E-001  0.3382905E+03  0.7546771E-02  0.1067655E+00
         21   -1    0    0  502  503  0.00000000000E+00  0.00000000000E+00  0.31300728892E+03  0.31300728892E+03  0.00000000000E+00 0. -1.
         21   -1    0    0  503  504 -0.00000000000E+00 -0.00000000000E+00 -0.10491541904E+04  0.10491541904E+04  0.00000000000E+00 0. -1.
         -6    2    1    2    0  504 -0.28153093757E+03 -0.64310543424E+02 -0.91811076758E+03  0.97803737562E+03  0.17387987739E+03 0.  0.
        -24    2    3    3    0    0 -0.12130578408E+03 -0.96586086560E+02 -0.47468158667E+03  0.50542195165E+03  0.78004968529E+02 0.  0.
          6    2    1    2  502    0  0.28153093757E+03  0.64310543424E+02  0.18196386608E+03  0.38412410372E+03  0.17619581068E+03 0.  0.
         24    2    5    5    0    0  0.10927710453E+03  0.60812070835E+02  0.41129524028E+02  0.16154821957E+03  0.93630101812E+02 0.  0.
          4    1    6    6  501    0  0.91576734139E+02  0.81475683126E+02  0.14418501713E+02  0.12341992695E+03  0.00000000000E+00 0. -1.
         -3    1    6    6    0  501  0.17700370391E+02 -0.20663612292E+02  0.26711022315E+02  0.38128292619E+02  0.00000000000E+00 0.  1.
          5    1    5    5  502    0  0.17225383304E+03  0.34984725891E+01  0.14083434205E+03  0.22257588416E+03  0.47000000000E+01 0. -1.
         11    1    4    4    0    0 -0.73405474513E+02 -0.27277887348E+02 -0.14119072146E+03  0.16145360526E+03  0.00000000000E+00 0. -1.
        -12    1    4    4    0    0 -0.47900309571E+02 -0.69308199212E+02 -0.33349086521E+03  0.34396834639E+03  0.00000000000E+00 0.  1.
         -5    1    3    3    0  504 -0.16022515348E+03  0.32275543136E+02 -0.44342918091E+03  0.47261542397E+03  0.47000000000E+01 0.  1.
<mgrwt>
<rscale>  2 0.33799001E+03</rscale>
<asrwt>0</asrwt>
<pdfrwt beam="1">  1       21 0.48154968E-01 0.33829052E+03</pdfrwt>
<pdfrwt beam="2">  1       21 0.16140834E+00 0.33829052E+03</pdfrwt>
<totfact> 0.90098342E+02</totfact>
</mgrwt>
</event>
<event>
12    1  0.2791583E-001  0.1807306E+03  0.7546771E-02  0.1167661E+00
         21   -1    0    0  502  503  0.00000000000E+00  0.00000000000E+00  0.47288937562E+02  0.47288937562E+02  0.00000000000E+00 0.  1.
         21   -1    0    0  503  504 -0.00000000000E+00 -0.00000000000E+00 -0.86357623759E+03  0.86357623759E+03  0.00000000000E+00 0.  1.
         -6    2    1    2    0  504  0.20302060420E+02 -0.43846964721E+02 -0.61496426244E+03  0.64032029307E+03  0.17173905687E+03 0.  0.
        -24    2    3    3    0    0  0.16897831638E+02  0.31363552960E+02 -0.22465125713E+03  0.24278470616E+03  0.84894152001E+02 0.  0.
          6    2    1    2  502    0 -0.20302060420E+02  0.43846964721E+02 -0.20132303758E+03  0.27054488208E+03  0.17415176654E+03 0.  0.
         24    2    5    5    0    0  0.28650852500E+02  0.82239353611E+02 -0.13121560491E+03  0.17669657190E+03  0.80124658620E+02 0.  0.
          2    1    6    6  501    0  0.21880557561E+01  0.87116217606E+02 -0.11807611219E+03  0.14675146073E+03  0.00000000000E+00 0. -1.
         -1    1    6    6    0  501  0.26462796744E+02 -0.48768639943E+01 -0.13139492720E+02  0.29945111168E+02  0.00000000000E+00 0.  1.
          5    1    5    5  502    0 -0.48952912920E+02 -0.38392388891E+02 -0.70107432675E+02  0.93848310184E+02  0.47000000000E+01 0. -1.
         13    1    4    4    0    0  0.39562635840E+02  0.49257521023E+02 -0.15243243947E+03  0.16500652756E+03  0.00000000000E+00 0. -1.
        -14    1    4    4    0    0 -0.22664804201E+02 -0.17893968063E+02 -0.72218817660E+02  0.77778178603E+02  0.00000000000E+00 0.  1.
         -5    1    3    3    0  504  0.34042287814E+01 -0.75210517681E+02 -0.39031300531E+03  0.39753558691E+03  0.47000000000E+01 0.  1.
<mgrwt>
<rscale>  2 0.18014690E+03</rscale>
<asrwt>0</asrwt>
<pdfrwt beam="1">  1       21 0.72752220E-02 0.18073065E+03</pdfrwt>
<pdfrwt beam="2">  1       21 0.13285787E+00 0.18073065E+03</pdfrwt>
<totfact> 0.58251902E+04</totfact>
</mgrwt>
</event>
<event>
12    1  0.2791583E-001  0.2141070E+03  0.7546771E-02  0.1139839E+00
         21   -1    0    0  502  503  0.00000000000E+00  0.00000000000E+00  0.32155710545E+03  0.32155710545E+03  0.00000000000E+00 0.  1.
         21   -1    0    0  503  504 -0.00000000000E+00 -0.00000000000E+00 -0.26251217289E+03  0.26251217289E+03  0.00000000000E+00 0.  1.
         -6    2    1    2    0  504 -0.90006286149E+02  0.92039785479E+02 -0.17164327344E+03  0.27441433719E+03  0.17108290821E+03 0.  0.
        -24    2    3    3    0    0  0.12285350944E+02  0.50934729234E+01 -0.62495763003E+02  0.10132907115E+03  0.78644688012E+02 0.  0.
          6    2    1    2  502    0  0.90006286149E+02 -0.92039785479E+02  0.23068820600E+03  0.30965494115E+03  0.16154467039E+03 0.  0.
         24    2    5    5    0    0  0.32171458915E+02 -0.16112156752E+02  0.18309296714E+03  0.20289694938E+03  0.79683957521E+02 0.  0.
          4    1    6    6  501    0 -0.24088620877E+02  0.34545357521E+01  0.30030047685E+02  0.38652286310E+02  0.00000000000E+00 0. -1.
         -3    1    6    6    0  501  0.56260079792E+02 -0.19566692505E+02  0.15306291945E+03  0.16424466307E+03  0.00000000000E+00 0.  1.
          5    1    5    5  502    0  0.57834827233E+02 -0.75927628726E+02  0.47595238865E+02  0.10675799177E+03  0.47000000000E+01 0. -1.
         13    1    4    4    0    0 -0.83590994170E+01  0.31827345491E+02 -0.58758943689E+02  0.67345882781E+02  0.00000000000E+00 0. -1.
        -14    1    4    4    0    0  0.20644450361E+02 -0.26733872568E+02 -0.37368193136E+01  0.33983188369E+02  0.00000000000E+00 0.  1.
         -5    1    3    3    0  504 -0.10229163709E+03  0.86946312556E+02 -0.10914751044E+03  0.17308526604E+03  0.47000000000E+01 0.  1.
<mgrwt>
<rscale>  2 0.21219610E+03</rscale>
<asrwt>0</asrwt>
<pdfrwt beam="1">  1       21 0.49470324E-01 0.21410702E+03</pdfrwt>
<pdfrwt beam="2">  1       21 0.40386488E-01 0.21410702E+03</pdfrwt>
<totfact> 0.22733623E+04</totfact>
</mgrwt>
</event>
<event>
12    1  0.2791583E-001  0.2104547E+03  0.7546771E-02  0.1141990E+00
         21   -1    0    0  502  503  0.00000000000E+00  0.00000000000E+00  0.12679073901E+04  0.12679073901E+04  0.00000000000E+00 0. -1.
         21   -1    0    0  503  504 -0.00000000000E+00 -0.00000000000E+00 -0.42639257525E+02  0.42639257525E+02  0.00000000000E+00 0. -1.
         -6    2    1    2    0  504 -0.82623245924E+02 -0.79221101884E+02  0.32720871102E+03  0.38904593313E+03  0.17660298346E+03 0.  0.
        -24    2    3    3    0    0 -0.42822458025E+02  0.26414512517E+02  0.17926912068E+03  0.20289761018E+03  0.80613480293E+02 0.  0.
          6    2    1    2  502    0  0.82623245924E+02  0.79221101884E+02  0.89805942157E+03  0.92150071451E+03  0.17190188602E+03 0.  0.
         24    2    5    5    0    0  0.87478616717E+02  0.77473826743E+01  0.70416194638E+03  0.71473904483E+03  0.85412675593E+02 0.  0.
          2    1    6    6  501    0  0.70750249283E+02  0.20551736799E+02  0.67361708189E+03  0.67763407874E+03  0.00000000000E+00 0. -1.
         -1    1    6    6    0  501  0.16728367434E+02 -0.12804354124E+02  0.30544864490E+02  0.37104966087E+02  0.00000000000E+00 0.  1.
          5    1    5    5  502    0 -0.48553707932E+01  0.71473719209E+02  0.19389747519E+03  0.20676166968E+03  0.47000000000E+01 0. -1.
         13    1    4    4    0    0  0.20323947444E+02  0.18151545762E+02  0.29547503638E+02  0.40194482513E+02  0.00000000000E+00 0. -1.
        -14    1    4    4    0    0 -0.63146405469E+02  0.82629667551E+01  0.14972161704E+03  0.16270312767E+03  0.00000000000E+00 0.  1.
         -5    1    3    3    0  504 -0.39800787900E+02 -0.10563561440E+03  0.14793959034E+03  0.18614832295E+03  0.47000000000E+01 0.  1.
<mgrwt>
<rscale>  2 0.20946551E+03</rscale>
<asrwt>0</asrwt>
<pdfrwt beam="1">  1       21 0.19506265E+00 0.21045474E+03</pdfrwt>
<pdfrwt beam="2">  1       21 0.65598867E-02 0.21045474E+03</pdfrwt>
<totfact> 0.24138312E+04</totfact>
</mgrwt>
</event>
<event>
12    1  0.2791583E-001  0.2336219E+03  0.7546771E-02  0.1124167E+00
         21   -1    0    0  502  503  0.00000000000E+00  0.00000000000E+00  0.80471748578E+02  0.80471748578E+02  0.00000000000E+00 0. -1.
         21   -1    0    0  503  504 -0.00000000000E+00 -0.00000000000E+00 -0.72219064112E+03  0.72219064112E+03  0.00000000000E+00 0. -1.
         -6    2    1    2    0  504  0.15450736511E+03 -0.18649344950E+02 -0.22108197017E+03  0.32164646755E+03  0.17423802287E+03 0.  0.
        -24    2    3    3    0    0  0.16862793771E+03  0.10586994238E+02 -0.21904578960E+03  0.28877717899E+03  0.82847663461E+02 0.  0.
          6    2    1    2  502    0 -0.15450736511E+03  0.18649344950E+02 -0.42063692238E+03  0.48101592215E+03  0.17384065391E+03 0.  0.
         24    2    5    5    0    0 -0.79522705063E+02 -0.58045119493E+02 -0.22928916018E+03  0.26160581250E+03  0.78555621308E+02 0.  0.
          2    1    6    6  501    0 -0.95587786600E+02 -0.50977611146E+02 -0.20025359975E+03  0.22767794359E+03  0.00000000000E+00 0. -1.
         -1    1    6    6    0  501  0.16065081537E+02 -0.70675083470E+01 -0.29035560424E+02  0.33927868901E+02  0.00000000000E+00 0.  1.
          5    1    5    5  502    0 -0.74984660052E+02  0.76694464442E+02 -0.19134776220E+03  0.21941010965E+03  0.47000000000E+01 0. -1.
         11    1    4    4    0    0  0.64016300513E+02 -0.12997631642E+02 -0.14330065565E+03  0.15748683460E+03  0.00000000000E+00 0. -1.
        -12    1    4    4    0    0  0.10461163720E+03  0.23584625880E+02 -0.75745133941E+02  0.13129034439E+03  0.00000000000E+00 0.  1.
         -5    1    3    3    0  504 -0.14120572594E+02 -0.29236339188E+02 -0.20361805717E+01  0.32869288566E+02  0.47000000000E+01 0.  1.
<mgrwt>
<rscale>  2 0.23354786E+03</rscale>
<asrwt>0</asrwt>
<pdfrwt beam="1">  1       21 0.12380268E-01 0.23362194E+03</pdfrwt>
<pdfrwt beam="2">  1       21 0.11110626E+00 0.23362194E+03</pdfrwt>
<totfact> 0.34609180E+04</totfact>
</mgrwt>
</event>
<event>
12    1  0.2791583E-001  0.1830410E+03  0.7546771E-02  0.1167008E+00
         21   -1    0    0  502  503  0.00000000000E+00  0.00000000000E+00  0.42063807184E+03  0.42063807184E+03  0.00000000000E+00 0.  1.
         21   -1    0    0  503  504 -0.00000000000E+00 -0.00000000000E+00 -0.92613070785E+02  0.92613070785E+02  0.00000000000E+00 0. -1.
         -6    2    1    2    0  504  0.41019864035E+02  0.38033093239E+02  0.58317884096E+02  0.19210674456E+03  0.17428390710E+03 0.  0.
        -24    2    3    3    0    0  0.42093388149E+02  0.87578705472E+02  0.66959245342E+02  0.14158265852E+03  0.78231871250E+02 0.  0.
          6    2    1    2  502    0 -0.41019864035E+02 -0.38033093239E+02  0.26970711696E+03  0.32114439807E+03  0.16511405163E+03 0.  0.
         24    2    5    5    0    0  0.30023231153E+02 -0.17781098356E+02  0.86904321367E+02  0.12392315999E+03  0.81160499278E+02 0.  0.
          4    1    6    6  501    0 -0.14364911487E+02 -0.36679902071E+02  0.46918648399E+02  0.61262757574E+02  0.00000000000E+00 0. -1.
         -3    1    6    6    0  501  0.44388142639E+02  0.18898803715E+02  0.39985672968E+02  0.62660402421E+02  0.00000000000E+00 0.  1.
          5    1    5    5  502    0 -0.71043095188E+02 -0.20251994882E+02  0.18280279559E+03  0.19722123807E+03  0.47000000000E+01 0. -1.
         13    1    4    4    0    0  0.42875426925E+02  0.97373941082E+02  0.41341757076E+02  0.11414520364E+03  0.00000000000E+00 0. -1.
        -14    1    4    4    0    0 -0.78203877618E+00 -0.97952356105E+01  0.25617488266E+02  0.27437454882E+02  0.00000000000E+00 0.  1.
         -5    1    3    3    0  504 -0.10735241137E+01 -0.49545612233E+02 -0.86413612464E+01  0.50524086036E+02  0.47000000000E+01 0.  1.
<mgrwt>
<rscale>  2 0.18082394E+03</rscale>
<asrwt>0</asrwt>
<pdfrwt beam="1">  1       21 0.64713548E-01 0.18304105E+03</pdfrwt>
<pdfrwt beam="2">  1       21 0.14248165E-01 0.18304105E+03</pdfrwt>
<totfact> 0.95134395E+04</totfact>
</mgrwt>
</event>
<event>
12    1  0.2791583E-001  0.2165552E+03  0.7546771E-02  0.1137050E+00
         21   -1    0    0  502  503  0.00000000000E+00  0.00000000000E+00  0.10983134386E+03  0.10983134386E+03  0.00000000000E+00 0.  1.
         21   -1    0    0  503  504 -0.00000000000E+00 -0.00000000000E+00 -0.14394705929E+04  0.14394705929E+04  0.00000000000E+00 0. -1.
         -6    2    1    2    0  504  0.13204373805E+03 -0.19999587822E+02 -0.13150246288E+04  0.13322541004E+04  0.16666037816E+03 0.  0.
        -24    2    3    3    0    0  0.15099950510E+03 -0.48572915840E+02 -0.11401914552E+04  0.11540281631E+04  0.81143502201E+02 0.  0.
          6    2    1    2  502    0 -0.13204373805E+03  0.19999587822E+02 -0.14614620310E+02  0.21704783634E+03  0.17047182718E+03 0.  0.
         24    2    5    5    0    0 -0.14652797684E+03 -0.23505425060E+02 -0.24246441479E+02  0.16995918274E+03  0.79216670389E+02 0.  0.
          2    1    6    6  501    0 -0.44052526091E+02 -0.44274264962E+02  0.72023173932E+00  0.62460822334E+02  0.00000000000E+00 0. -1.
         -1    1    6    6    0  501 -0.10247545075E+03  0.20768839903E+02 -0.24966673219E+02  0.10749836040E+03  0.00000000000E+00 0.  1.
          5    1    5    5  502    0  0.14484238792E+02  0.43505012882E+02  0.96318211696E+01  0.47088653604E+02  0.47000000000E+01 0. -1.
         11    1    4    4    0    0  0.68156927075E+02 -0.64042836501E+02 -0.63677334577E+03  0.64360480537E+03  0.00000000000E+00 0. -1.
        -12    1    4    4    0    0  0.82842578029E+02  0.15469920661E+02 -0.50341810947E+03  0.51042335774E+03  0.00000000000E+00 0.  1.
         -5    1    3    3    0  504 -0.18955767050E+02  0.28573328018E+02 -0.17483317351E+03  0.17822593733E+03  0.47000000000E+01 0.  1.
<mgrwt>
<rscale>  2 0.21580450E+03</rscale>
<asrwt>0</asrwt>
<pdfrwt beam="1">  1       21 0.16897130E-01 0.21655525E+03</pdfrwt>
<pdfrwt beam="2">  1       21 0.22145701E+00 0.21655525E+03</pdfrwt>
<totfact> 0.30361987E+03</totfact>
</mgrwt>
</event>
<event>
12    1  0.2791583E-001  0.2099247E+03  0.7546771E-02  0.1143115E+00
         21   -1    0    0  502  503  0.00000000000E+00  0.00000000000E+00  0.77866980464E+02  0.77866980464E+02  0.00000000000E+00 0.  1.
         21   -1    0    0  503  504 -0.00000000000E+00 -0.00000000000E+00 -0.60813559595E+03  0.60813559595E+03  0.00000000000E+00 0.  1.
         -6    2    1    2    0  504  0.94903491843E+02 -0.47680046263E+02 -0.37881687015E+03  0.43309420654E+03  0.18107542917E+03 0.  0.
        -24    2    3    3    0    0  0.89636116487E+02 -0.52747317406E+02 -0.39423211217E+03  0.41539838312E+03  0.79498085234E+02 0.  0.
          6    2    1    2  502    0 -0.94903491843E+02  0.47680046263E+02 -0.15145174533E+03  0.25290836987E+03  0.17246725142E+03 0.  0.
         24    2    5    5    0    0 -0.59804674488E+02 -0.35157869277E+02 -0.10805530279E+03  0.15291142764E+03  0.83025787437E+02 0.  0.
          4    1    6    6  501    0 -0.60730616896E+02 -0.52588126572E+02 -0.55786500533E+02  0.97805176380E+02  0.00000000000E+00 0. -1.
         -3    1    6    6    0  501  0.92594240803E+00  0.17430257295E+02 -0.52268802258E+02  0.55106251263E+02  0.00000000000E+00 0.  1.
          5    1    5    5  502    0 -0.35098817355E+02  0.82837915540E+02 -0.43396442540E+02  0.99996942232E+02  0.47000000000E+01 0. -1.
         13    1    4    4    0    0  0.88207041647E+02 -0.16926461573E+02 -0.32813603943E+03  0.34020618406E+03  0.00000000000E+00 0. -1.
        -14    1    4    4    0    0  0.14290748392E+01 -0.35820855833E+02 -0.66096072738E+02  0.75192199056E+02  0.00000000000E+00 0.  1.
         -5    1    3    3    0  504  0.52673753563E+01  0.50672711428E+01  0.15415242020E+02  0.17695823420E+02  0.47000000000E+01 0.  1.
<mgrwt>
<rscale>  2 0.20805527E+03</rscale>
<asrwt>0</asrwt>
<pdfrwt beam="1">  1       21 0.11979535E-01 0.20992468E+03</pdfrwt>
<pdfrwt beam="2">  1       21 0.93559328E-01 0.20992468E+03</pdfrwt>
<totfact> 0.56032259E+04</totfact>
</mgrwt>
</event>
<event>
12    1  0.2791583E-001  0.2202672E+03  0.7546771E-02  0.1134652E+00
         21   -1    0    0  502  503  0.00000000000E+00  0.00000000000E+00  0.82008938875E+02  0.82008938875E+02  0.00000000000E+00 0. -1.
         21   -1    0    0  503  504 -0.00000000000E+00 -0.00000000000E+00 -0.65430362277E+03  0.65430362277E+03  0.00000000000E+00 0. -1.
         -6    2    1    2    0  504 -0.11937495216E+03 -0.46242399870E+02 -0.15736117359E+03  0.26653870187E+03  0.17289187920E+03 0.  0.
        -24    2    3    3    0    0 -0.97583858864E+02  0.29037077551E+02 -0.12891313971E+03  0.18303282124E+03  0.80725799338E+02 0.  0.
          6    2    1    2  502    0  0.11937495216E+03  0.46242399870E+02 -0.41493351030E+03  0.46977385977E+03  0.17924542561E+03 0.  0.
         24    2    5    5    0    0  0.73241799036E+02  0.98593001080E+02 -0.23484424536E+03  0.27658202088E+03  0.79125556617E+02 0.  0.
          4    1    6    6  501    0  0.85677840600E+02  0.88230494279E+02 -0.22790247111E+03  0.25896881826E+03  0.00000000000E+00 0. -1.
         -3    1    6    6    0  501 -0.12436041564E+02  0.10362506802E+02 -0.69417742419E+01  0.17613202623E+02  0.00000000000E+00 0.  1.
          5    1    5    5  502    0  0.46133153125E+02 -0.52350601211E+02 -0.18008926495E+03  0.19319183889E+03  0.47000000000E+01 0. -1.
         11    1    4    4    0    0 -0.24037277237E+02  0.36056308837E+02 -0.89166958025E+02  0.99139268241E+02  0.00000000000E+00 0. -1.
        -12    1    4    4    0    0 -0.73546581627E+02 -0.70192312856E+01 -0.39746181687E+02  0.83893553004E+02  0.00000000000E+00 0.  1.
         -5    1    3    3    0  504 -0.21791093297E+02 -0.75279477421E+02 -0.28448033879E+02  0.83505880628E+02  0.47000000000E+01 0.  1.
<mgrwt>
<rscale>  2 0.21897121E+03</rscale>
<asrwt>0</asrwt>
<pdfrwt beam="1">  1       21 0.12616760E-01 0.22026725E+03</pdfrwt>
<pdfrwt beam="2">  1       21 0.10066209E+00 0.22026725E+03</pdfrwt>
<totfact> 0.42737303E+04</totfact>
</mgrwt>
</event>
<event>
12    1  0.2791583E-001  0.1990694E+03  0.7546771E-02  0.1152202E+00
         21   -1    0    0  502  503  0.00000000000E+00  0.00000000000E+00  0.15715654389E+03  0.15715654389E+03  0.00000000000E+00 0.  1.
         21   -1    0    0  503  504 -0.00000000000E+00 -0.00000000000E+00 -0.31255902261E+03  0.31255902261E+03  0.00000000000E+00 0.  1.
         -6    2    1    2    0  504  0.90553075407E+02  0.44705111261E+02  0.32309308549E+02  0.20167430600E+03  0.17155240553E+03 0.  0.
        -24    2    3    3    0    0  0.49521386498E+02  0.92112222616E+02  0.39337141543E+02  0.13840887991E+03  0.81685849794E+02 0.  0.
          6    2    1    2  502    0 -0.90553075407E+02 -0.44705111261E+02 -0.18771178727E+03  0.26804126050E+03  0.16251767846E+03 0.  0.
         24    2    5    5    0    0 -0.92748431355E+02 -0.10600311476E+02 -0.62968432932E+02  0.13861579389E+03  0.80837346862E+02 0.  0.
          2    1    6    6  501    0 -0.90672450962E+02 -0.22784752017E+02 -0.22304890717E+02  0.96115276818E+02  0.00000000000E+00 0. -1.
         -1    1    6    6    0  501 -0.20759803928E+01  0.12184440541E+02 -0.40663542215E+02  0.42500517072E+02  0.00000000000E+00 0.  1.
          5    1    5    5  502    0  0.21953559478E+01 -0.34104799785E+02 -0.12474335434E+03  0.12942546661E+03  0.47000000000E+01 0. -1.
         11    1    4    4    0    0 -0.21844586413E+02  0.32842777733E+02  0.63600801112E+01  0.39953530805E+02  0.00000000000E+00 0. -1.
        -12    1    4    4    0    0  0.71365972911E+02  0.59269444883E+02  0.32977061432E+02  0.98455349103E+02  0.00000000000E+00 0.  1.
         -5    1    3    3    0  504  0.41031688909E+02 -0.47407111355E+02 -0.70278329935E+01  0.63265426090E+02  0.47000000000E+01 0.  1.
<mgrwt>
<rscale>  2 0.19710788E+03</rscale>
<asrwt>0</asrwt>
<pdfrwt beam="1">  1       21 0.24177930E-01 0.19906942E+03</pdfrwt>
<pdfrwt beam="2">  1       21 0.48086003E-01 0.19906942E+03</pdfrwt>
<totfact> 0.66519473E+04</totfact>
</mgrwt>
</event>
<event>
12    1  0.2791583E-001  0.1820648E+03  0.7546771E-02  0.1165925E+00
         21   -1    0    0  502  503  0.00000000000E+00  0.00000000000E+00  0.16299471517E+03  0.16299471517E+03  0.00000000000E+00 0.  1.
         21   -1    0    0  503  504 -0.00000000000E+00 -0.00000000000E+00 -0.20431368972E+03  0.20431368972E+03  0.00000000000E+00 0.  1.
         -6    2    1    2    0  504 -0.43892186157E+02 -0.34812503597E+02 -0.36056758757E+02  0.18516761312E+03  0.17276724425E+03 0.  0.
        -24    2    3    3    0    0  0.57508217328E+01 -0.37755508480E+02 -0.79513790766E+02  0.11895814899E+03  0.79812579945E+02 0.  0.
          6    2    1    2  502    0  0.43892186157E+02  0.34812503597E+02 -0.52622157945E+01  0.18214079177E+03  0.17323147145E+03 0.  0.
         24    2    5    5    0    0  0.56474168283E+02  0.51387495078E+02 -0.57421245304E+02  0.12578752233E+03  0.81824782484E+02 0.  0.
          2    1    6    6  501    0  0.33003984495E+02  0.67966142746E+02 -0.19177498633E+02  0.77951497780E+02  0.00000000000E+00 0. -1.
         -1    1    6    6    0  501  0.23470183788E+02 -0.16578647668E+02 -0.38243746672E+02  0.47836024553E+02  0.00000000000E+00 0.  1.
          5    1    5    5  502    0 -0.12581982127E+02 -0.16574991481E+02  0.52159029510E+02  0.56353269437E+02  0.47000000000E+01 0. -1.
         13    1    4    4    0    0 -0.29176659972E+02 -0.43968201088E+02 -0.43253432939E+02  0.68230049502E+02  0.00000000000E+00 0. -1.
        -14    1    4    4    0    0  0.34927481705E+02  0.62126926082E+01 -0.36260357827E+02  0.50728099486E+02  0.00000000000E+00 0.  1.
         -5    1    3    3    0  504 -0.49643007889E+02  0.29430048838E+01  0.43457032009E+02  0.66209464135E+02  0.47000000000E+01 0.  1.
<mgrwt>
<rscale>  2 0.18195425E+03</rscale>
<asrwt>0</asrwt>
<pdfrwt beam="1">  1       21 0.25076110E-01 0.18206476E+03</pdfrwt>
<pdfrwt beam="2">  1       21 0.31432875E-01 0.18206476E+03</pdfrwt>
<totfact> 0.14698946E+05</totfact>
</mgrwt>
</event>
<event>
12    1  0.2791583E-001  0.1819138E+03  0.7546771E-02  0.1166322E+00
         21   -1    0    0  502  503  0.00000000000E+00  0.00000000000E+00  0.80960527747E+02  0.80960527747E+02  0.00000000000E+00 0.  1.
         21   -1    0    0  503  504 -0.00000000000E+00 -0.00000000000E+00 -0.43726767934E+03  0.43726767934E+03  0.00000000000E+00 0.  1.
         -6    2    1    2    0  504  0.14866806874E+02  0.50230827933E+02 -0.24742107417E+03  0.30621690630E+03  0.17264833548E+03 0.  0.
        -24    2    3    3    0    0  0.47615879412E+02 -0.23019356521E+02 -0.16235922572E+03  0.18918828016E+03  0.81452590068E+02 0.  0.
          6    2    1    2  502    0 -0.14866806874E+02 -0.50230827933E+02 -0.10888607743E+03  0.21201130078E+03  0.17420808185E+03 0.  0.
         24    2    5    5    0    0  0.46606147052E+02 -0.40038479888E+02 -0.10991884824E+03  0.14951358372E+03  0.80603633315E+02 0.  0.
          2    1    6    6  501    0  0.32083900024E+02  0.18254090250E+02 -0.21814405582E+02  0.42877228718E+02  0.00000000000E+00 0. -1.
         -1    1    6    6    0  501  0.14522247027E+02 -0.58292570138E+02 -0.88104442654E+02  0.10663635500E+03  0.00000000000E+00 0.  1.
          5    1    5    5  502    0 -0.61472953926E+02 -0.10192348046E+02  0.10327708085E+01  0.62497717067E+02  0.47000000000E+01 0. -1.
         13    1    4    4    0    0 -0.42062909096E+01 -0.41718082127E+02 -0.74327822432E+02  0.85338833171E+02  0.00000000000E+00 0. -1.
        -14    1    4    4    0    0  0.51822170322E+02  0.18698725606E+02 -0.88031403284E+02  0.10384944699E+03  0.00000000000E+00 0.  1.
         -5    1    3    3    0  504 -0.32749072538E+02  0.73250184454E+02 -0.85061848450E+02  0.11702862614E+03  0.47000000000E+01 0.  1.
<mgrwt>
<rscale>  2 0.18153932E+03</rscale>
<asrwt>0</asrwt>
<pdfrwt beam="1">  1       21 0.12455466E-01 0.18191375E+03</pdfrwt>
<pdfrwt beam="2">  1       21 0.67271949E-01 0.18191375E+03</pdfrwt>
<totfact> 0.11143932E+05</totfact>
</mgrwt>
</event>
<event>
12    1  0.2791583E-001  0.2559994E+03  0.7546771E-02  0.1110114E+00
         21   -1    0    0  502  503  0.00000000000E+00  0.00000000000E+00  0.11528496204E+03  0.11528496204E+03  0.00000000000E+00 0. -1.
         21   -1    0    0  503  504 -0.00000000000E+00 -0.00000000000E+00 -0.89287202141E+03  0.89287202141E+03  0.00000000000E+00 0.  1.
         -6    2    1    2    0  504 -0.12193718848E+03 -0.13642574480E+03 -0.69456458419E+03  0.73903171122E+03  0.17397484529E+03 0.  0.
        -24    2    3    3    0    0 -0.14358420347E+03 -0.10745085598E+03 -0.66061917803E+03  0.68920683751E+03  0.80163935512E+02 0.  0.
          6    2    1    2  502    0  0.12193718848E+03  0.13642574480E+03 -0.83022475181E+02  0.26912527223E+03  0.17903915490E+03 0.  0.
         24    2    5    5    0    0  0.15061652622E+03  0.14195967571E+03 -0.55134848592E+02  0.22846892560E+03  0.79500383244E+02 0.  0.
          2    1    6    6  501    0  0.75143359677E+02  0.10314738171E+03 -0.65243799030E+00  0.12761791619E+03  0.00000000000E+00 0. -1.
         -1    1    6    6    0  501  0.75473166545E+02  0.38812294001E+02 -0.54482410602E+02  0.10085100941E+03  0.00000000000E+00 0.  1.
          5    1    5    5  502    0 -0.28679337741E+02 -0.55339309057E+01 -0.27887626589E+02  0.40656346630E+02  0.47000000000E+01 0. -1.
         11    1    4    4    0    0 -0.19200277766E+02 -0.11352948551E+02 -0.22490052304E+03  0.22600394990E+03  0.00000000000E+00 0. -1.
        -12    1    4    4    0    0 -0.12438392571E+03 -0.96097907433E+02 -0.43571865499E+03  0.46320288761E+03  0.00000000000E+00 0.  1.
         -5    1    3    3    0  504  0.21647014992E+02 -0.28974888821E+02 -0.33945406161E+02  0.49824873704E+02  0.47000000000E+01 0.  1.
<mgrwt>
<rscale>  2 0.25511584E+03</rscale>
<asrwt>0</asrwt>
<pdfrwt beam="1">  1       21 0.17736148E-01 0.25599938E+03</pdfrwt>
<pdfrwt beam="2">  1       21 0.13736493E+00 0.25599938E+03</pdfrwt>
<totfact> 0.10401135E+04</totfact>
</mgrwt>
</event>
<event>
12    1  0.2791583E-001  0.1824479E+03  0.7546771E-02  0.1166301E+00
         21   -1    0    0  502  503  0.00000000000E+00  0.00000000000E+00  0.30125242713E+04  0.30125242713E+04  0.00000000000E+00 0.  1.
         21   -1    0    0  503  504 -0.00000000000E+00 -0.00000000000E+00 -0.14135585515E+02  0.14135585515E+02  0.00000000000E+00 0.  1.
         -6    2    1    2    0  504  0.37394769771E+02  0.45317921096E+02  0.77941906494E+03  0.80048816262E+03  0.17272850641E+03 0.  0.
        -24    2    3    3    0    0  0.68571300284E+02 -0.22205974588E+02  0.48453761028E+03  0.49633587371E+03  0.79859096114E+02 0.  0.
          6    2    1    2  502    0 -0.37394769771E+02 -0.45317921096E+02  0.22189696208E+04  0.22261716942E+04  0.16900340536E+03 0.  0.
         24    2    5    5    0    0 -0.55817839002E+02  0.23267065240E+02  0.10111333318E+04  0.10162403321E+04  0.81834042107E+02 0.  0.
          4    1    6    6  501    0  0.68039338951E+01  0.27548047143E+02  0.13989155044E+03  0.14274044382E+03  0.00000000000E+00 0. -1.
         -3    1    6    6    0  501 -0.62621772897E+02 -0.42809819028E+01  0.87124178135E+03  0.87349988827E+03  0.00000000000E+00 0.  1.
          5    1    5    5  502    0  0.18423069231E+02 -0.68584986337E+02  0.12078362890E+04  0.12099313621E+04  0.47000000000E+01 0. -1.
         13    1    4    4    0    0  0.35030738379E+02  0.27883943270E+02  0.15531606985E+03  0.16164080079E+03  0.00000000000E+00 0. -1.
        -14    1    4    4    0    0  0.33540561905E+02 -0.50089917858E+02  0.32922154042E+03  0.33469507293E+03  0.00000000000E+00 0.  1.
         -5    1    3    3    0  504 -0.31176530513E+02  0.67523895684E+02  0.29488145466E+03  0.30415228890E+03  0.47000000000E+01 0.  1.
<mgrwt>
<rscale>  2 0.18156075E+03</rscale>
<asrwt>0</asrwt>
<pdfrwt beam="1">  1       21 0.46346476E+00 0.18244785E+03</pdfrwt>
<pdfrwt beam="2">  1       21 0.21747079E-02 0.18244785E+03</pdfrwt>
<totfact> 0.36881268E+03</totfact>
</mgrwt>
</event>
<event>
12    1  0.2791583E-001  0.1767796E+03  0.7546771E-02  0.1171527E+00
         21   -1    0    0  502  503  0.00000000000E+00  0.00000000000E+00  0.99792672205E+02  0.99792672205E+02  0.00000000000E+00 0.  1.
         21   -1    0    0  503  504 -0.00000000000E+00 -0.00000000000E+00 -0.31081809927E+03  0.31081809927E+03  0.00000000000E+00 0.  1.
         -6    2    1    2    0  504 -0.95447800846E+01  0.36018663326E+01 -0.11999305418E+03  0.21176932093E+03  0.17419482187E+03 0.  0.
        -24    2    3    3    0    0  0.91304471547E+01 -0.14699257274E+02 -0.15036957410E+03  0.17141441788E+03  0.80451604169E+02 0.  0.
          6    2    1    2  502    0  0.95447800846E+01 -0.36018663326E+01 -0.91032372883E+02  0.19884145054E+03  0.17648499447E+03 0.  0.
         24    2    5    5    0    0  0.75103612373E+02 -0.26809227610E+01 -0.73612753401E+02  0.13083893757E+03  0.77796209304E+02 0.  0.
          2    1    6    6  501    0  0.52085040946E+01 -0.31805146492E+02 -0.25833714002E+02  0.41304680575E+02  0.00000000000E+00 0. -1.
         -1    1    6    6    0  501  0.69895108279E+02  0.29124223731E+02 -0.47779039399E+02  0.89534256992E+02  0.00000000000E+00 0.  1.
          5    1    5    5  502    0 -0.65558832289E+02 -0.92094357162E+00 -0.17419619482E+02  0.68002512976E+02  0.47000000000E+01 0. -1.
         11    1    4    4    0    0  0.44221897949E+02 -0.16354897376E+02 -0.87594158410E+02  0.99477613130E+02  0.00000000000E+00 0. -1.
        -12    1    4    4    0    0 -0.35091450795E+02  0.16556401019E+01 -0.62775415688E+02  0.71936804752E+02  0.00000000000E+00 0.  1.
         -5    1    3    3    0  504 -0.18675227239E+02  0.18301123607E+02  0.30376519919E+02  0.40354903049E+02  0.47000000000E+01 0.  1.
<mgrwt>
<rscale>  2 0.17620524E+03</rscale>
<asrwt>0</asrwt>
<pdfrwt beam="1">  1       21 0.15352719E-01 0.17677961E+03</pdfrwt>
<pdfrwt beam="2">  1       21 0.47818169E-01 0.17677961E+03</pdfrwt>
<totfact> 0.15799790E+05</totfact>
</mgrwt>
</event>
<event>
12    1  0.2791583E-001  0.1746589E+03  0.7546771E-02  0.1173411E+00
         21   -1    0    0  502  503  0.00000000000E+00  0.00000000000E+00  0.24816023192E+03  0.24816023192E+03  0.00000000000E+00 0. -1.
         21   -1    0    0  503  504 -0.00000000000E+00 -0.00000000000E+00 -0.19140675483E+03  0.19140675483E+03  0.00000000000E+00 0. -1.
         -6    2    1    2    0  504  0.65331825733E+01  0.12837804460E+01 -0.10390804822E+03  0.20323044098E+03  0.17453194289E+03 0.  0.
        -24    2    3    3    0    0 -0.19653831451E+02  0.63869279588E+02 -0.53560315798E+02  0.11861549805E+03  0.82069305980E+02 0.  0.
          6    2    1    2  502    0 -0.65331825733E+01 -0.12837804460E+01  0.16066152530E+03  0.23633654578E+03  0.17320076960E+03 0.  0.
         24    2    5    5    0    0  0.26426074698E+02 -0.55665995559E+02  0.13817034229E+03  0.16872233667E+03  0.74693660482E+02 0.  0.
          2    1    6    6  501    0  0.95836328833E+01  0.48272562929E+01  0.87165862896E+02  0.87823892404E+02  0.00000000000E+00 0. -1.
         -1    1    6    6    0  501  0.16842441814E+02 -0.60493251852E+02  0.51004479395E+02  0.80898444264E+02  0.00000000000E+00 0.  1.
          5    1    5    5  502    0 -0.32959257271E+02  0.54382215113E+02  0.22491183008E+02  0.67614209110E+02  0.47000000000E+01 0. -1.
         13    1    4    4    0    0 -0.36161795563E+02  0.50250597416E+02 -0.10574204799E+01  0.61918625123E+02  0.00000000000E+00 0. -1.
        -14    1    4    4    0    0  0.16507964113E+02  0.13618682172E+02 -0.52502895318E+02  0.56696872929E+02  0.00000000000E+00 0.  1.
         -5    1    3    3    0  504  0.26187014024E+02 -0.62585499142E+02 -0.50347732418E+02  0.84614942923E+02  0.47000000000E+01 0.  1.
<mgrwt>
<rscale>  2 0.17432539E+03</rscale>
<asrwt>0</asrwt>
<pdfrwt beam="1">  1       21 0.38178497E-01 0.17465890E+03</pdfrwt>
<pdfrwt beam="2">  1       21 0.29447193E-01 0.17465890E+03</pdfrwt>
<totfact> 0.73658995E+04</totfact>
</mgrwt>
</event>
<event>
12    1  0.2791583E-001  0.2300307E+03  0.7546771E-02  0.1127096E+00
         21   -1    0    0  502  503  0.00000000000E+00  0.00000000000E+00  0.16386396438E+03  0.16386396438E+03  0.00000000000E+00 0. -1.
         21   -1    0    0  503  504 -0.00000000000E+00 -0.00000000000E+00 -0.35713871778E+03  0.35713871778E+03  0.00000000000E+00 0. -1.
         -6    2    1    2    0  504 -0.11305395812E+03  0.10131564647E+03 -0.18211959076E+03  0.29339676106E+03  0.17282377266E+03 0.  0.
        -24    2    3    3    0    0 -0.52902916660E+02  0.13094158233E+02 -0.15508074618E+03  0.18314991125E+03  0.80769279967E+02 0.  0.
          6    2    1    2  502    0  0.11305395812E+03 -0.10131564647E+03 -0.11155162631E+02  0.22760592110E+03  0.16921572031E+03 0.  0.
         24    2    5    5    0    0  0.14229594518E+02  0.10293534442E+01 -0.17992941410E+02  0.85094170465E+02  0.81937360086E+02 0.  0.
          4    1    6    6  501    0  0.10325379004E+02 -0.19020071110E+02 -0.45762181829E+02  0.50621673643E+02  0.00000000000E+00 0. -1.
         -3    1    6    6    0  501  0.39042155139E+01  0.20049424555E+02  0.27769240419E+02  0.34472496823E+02  0.00000000000E+00 0.  1.
          5    1    5    5  502    0  0.98824363605E+02 -0.10234499992E+03  0.68377787796E+01  0.14251175063E+03  0.47000000000E+01 0. -1.
         11    1    4    4    0    0 -0.70517001227E+02  0.25878610760E+02 -0.12793096377E+03  0.14835323201E+03  0.00000000000E+00 0. -1.
        -12    1    4    4    0    0  0.17614084567E+02 -0.12784452527E+02 -0.27149782403E+02  0.34796679239E+02  0.00000000000E+00 0.  1.
         -5    1    3    3    0  504 -0.60151041464E+02  0.88221488241E+02 -0.27038844587E+02  0.11024684981E+03  0.47000000000E+01 0.  1.
<mgrwt>
<rscale>  2 0.22935312E+03</rscale>
<asrwt>0</asrwt>
<pdfrwt beam="1">  1       21 0.25209841E-01 0.23003068E+03</pdfrwt>
<pdfrwt beam="2">  1       21 0.54944418E-01 0.23003068E+03</pdfrwt>
<totfact> 0.45775553E+04</totfact>
</mgrwt>
</event>
<event>
12    1  0.2791583E-001  0.3921213E+03  0.7546771E-02  0.1046884E+00
         21   -1    0    0  502  503  0.00000000000E+00  0.00000000000E+00  0.28032812266E+03  0.28032812266E+03  0.00000000000E+00 0.  1.
         21   -1    0    0  503  504 -0.00000000000E+00 -0.00000000000E+00 -0.56378557782E+03  0.56378557782E+03  0.00000000000E+00 0. -1.
         -6    2    1    2    0  504 -0.33528063827E+03 -0.10647639441E+03 -0.60314810144E+02  0.39294659490E+03  0.16437402821E+03 0.  0.
        -24    2    3    3    0    0 -0.30906545862E+03 -0.86888690056E+02 -0.95696115183E+02  0.34452304120E+03  0.80419383784E+02 0.  0.
          6    2    1    2  502    0  0.33528063827E+03  0.10647639441E+03 -0.22314264501E+03  0.45116710558E+03  0.17323044815E+03 0.  0.
         24    2    5    5    0    0  0.19034834375E+03  0.12101965606E+03 -0.17950125125E+03  0.29903710293E+03  0.79525094212E+02 0.  0.
          4    1    6    6  501    0  0.73942133185E+02  0.87243250255E+02 -0.11305551751E+03  0.16081160970E+03  0.00000000000E+00 0. -1.
         -3    1    6    6    0  501  0.11640621056E+03  0.33776405803E+02 -0.66445733736E+02  0.13822549323E+03  0.00000000000E+00 0.  1.
          5    1    5    5  502    0  0.14493229453E+03 -0.14543261653E+02 -0.43641393767E+02  0.15213000265E+03  0.47000000000E+01 0. -1.
         11    1    4    4    0    0 -0.10952449574E+02 -0.50314043691E+01 -0.24469315679E+02  0.27276704189E+02  0.00000000000E+00 0. -1.
        -12    1    4    4    0    0 -0.29811300904E+03 -0.81857285687E+02 -0.71226799504E+02  0.31724633701E+03  0.00000000000E+00 0.  1.
         -5    1    3    3    0  504 -0.26215179656E+02 -0.19587704349E+02  0.35381305039E+02  0.48423553694E+02  0.47000000000E+01 0.  1.
<mgrwt>
<rscale>  2 0.39115996E+03</rscale>
<asrwt>0</asrwt>
<pdfrwt beam="1">  1       21 0.43127403E-01 0.39212130E+03</pdfrwt>
<pdfrwt beam="2">  1       21 0.86736243E-01 0.39212130E+03</pdfrwt>
<totfact> 0.53112144E+03</totfact>
</mgrwt>
</event>
<event>
12    1  0.2791583E-001  0.3233425E+03  0.7546771E-02  0.1074564E+00
         21   -1    0    0  502  503  0.00000000000E+00  0.00000000000E+00  0.91687318971E+03  0.91687318971E+03  0.00000000000E+00 0. -1.
         21   -1    0    0  503  504 -0.00000000000E+00 -0.00000000000E+00 -0.14773574997E+03  0.14773574997E+03  0.00000000000E+00 0.  1.
         -6    2    1    2    0  504  0.24388956700E+03 -0.11461427266E+03  0.12699165596E+03  0.34738628351E+03  0.17869470306E+03 0.  0.
        -24    2    3    3    0    0  0.18323938483E+03 -0.13389297336E+03  0.14739174375E+03  0.28039101144E+03  0.73422017841E+02 0.  0.
          6    2    1    2  502    0 -0.24388956700E+03  0.11461427266E+03  0.64214578377E+03  0.71722265617E+03  0.17157674235E+03 0.  0.
         24    2    5    5    0    0 -0.16862621128E+03  0.12702582209E+02  0.31991961066E+03  0.37095345164E+03  0.81619552044E+02 0.  0.
          2    1    6    6  501    0 -0.87032756994E+02  0.13388750373E+02  0.85490104158E+02  0.12272944771E+03  0.00000000000E+00 0. -1.
         -1    1    6    6    0  501 -0.81593454281E+02 -0.68616816374E+00  0.23442950650E+03  0.24822400393E+03  0.00000000000E+00 0.  1.
          5    1    5    5  502    0 -0.75263355722E+02  0.10191169045E+03  0.32222617311E+03  0.34626920453E+03  0.47000000000E+01 0. -1.
         11    1    4    4    0    0  0.42684882805E+02 -0.19273445994E+02  0.67626238942E+02  0.82260398334E+02  0.00000000000E+00 0. -1.
        -12    1    4    4    0    0  0.14055450203E+03 -0.11461952737E+03  0.79765504804E+02  0.19813061311E+03  0.00000000000E+00 0.  1.
         -5    1    3    3    0  504  0.60650182165E+02  0.19278700707E+02 -0.20400087785E+02  0.66995272066E+02  0.47000000000E+01 0.  1.
<mgrwt>
<rscale>  2 0.32236841E+03</rscale>
<asrwt>0</asrwt>
<pdfrwt beam="1">  1       21 0.14105741E+00 0.32334246E+03</pdfrwt>
<pdfrwt beam="2">  1       21 0.22728577E-01 0.32334246E+03</pdfrwt>
<totfact> 0.58661787E+03</totfact>
</mgrwt>
</event>
<event>
12    1  0.2791583E-001  0.1783795E+03  0.7546771E-02  0.1169734E+00
         21   -1    0    0  502  503  0.00000000000E+00  0.00000000000E+00  0.77395708886E+03  0.77395708886E+03  0.00000000000E+00 0. -1.
         21   -1    0    0  503  504 -0.00000000000E+00 -0.00000000000E+00 -0.89096971453E+02  0.89096971453E+02  0.00000000000E+00 0. -1.
         -6    2    1    2    0  504 -0.34412872154E+02  0.41795720040E+02  0.25292032604E+02  0.18016359086E+03  0.16996500985E+03 0.  0.
        -24    2    3    3    0    0  0.36443087144E+02  0.54768044454E+02  0.31602231273E+02  0.10770148506E+03  0.79203987082E+02 0.  0.
          6    2    1    2  502    0  0.34412872154E+02 -0.41795720040E+02  0.65956808480E+03  0.68289046946E+03  0.16845832363E+03 0.  0.
         24    2    5    5    0    0  0.18232606606E+01  0.16631623549E+02  0.17672883733E+03  0.19541568430E+03  0.81696221134E+02 0.  0.
          4    1    6    6  501    0  0.22832886528E+02  0.96503576329E+01  0.17067227779E+03  0.17246302942E+03  0.00000000000E+00 0. -1.
         -3    1    6    6    0  501 -0.21009625868E+02  0.69812659162E+01  0.60565595364E+01  0.22952654886E+02  0.00000000000E+00 0.  1.
          5    1    5    5  502    0  0.32589611493E+02 -0.58427343589E+02  0.48283924748E+03  0.48747478515E+03  0.47000000000E+01 0. -1.
         13    1    4    4    0    0 -0.21353378686E+02  0.10393684461E+02 -0.76306776419E+01  0.24944392141E+02  0.00000000000E+00 0. -1.
        -14    1    4    4    0    0  0.57796465831E+02  0.44374359993E+02  0.39232908915E+02  0.82757092924E+02  0.00000000000E+00 0.  1.
         -5    1    3    3    0  504 -0.70855959298E+02 -0.12972324414E+02 -0.63101986690E+01  0.72462105793E+02  0.47000000000E+01 0.  1.
<mgrwt>
<rscale>  2 0.17801962E+03</rscale>
<asrwt>0</asrwt>
<pdfrwt beam="1">  1       21 0.11907032E+00 0.17837946E+03</pdfrwt>
<pdfrwt beam="2">  1       21 0.13707227E-01 0.17837946E+03</pdfrwt>
<totfact> 0.25088965E+04</totfact>
</mgrwt>
</event>
<event>
12    1  0.2791583E-001  0.1929788E+03  0.7546771E-02  0.1156023E+00
         21   -1    0    0  502  503  0.00000000000E+00  0.00000000000E+00  0.62675972011E+02  0.62675972011E+02  0.00000000000E+00 0.  1.
         21   -1    0    0  503  504 -0.00000000000E+00 -0.00000000000E+00 -0.59163989188E+03  0.59163989188E+03  0.00000000000E+00 0.  1.
         -6    2    1    2    0  504  0.69571547028E+02  0.48167819899E+02 -0.27491524846E+03  0.33588571010E+03  0.17343724335E+03 0.  0.
        -24    2    3    3    0    0 -0.10339338320E+02  0.71936048161E+02 -0.17040955834E+03  0.20211647769E+03  0.80808143386E+02 0.  0.
          6    2    1    2  502    0 -0.69571547028E+02 -0.48167819899E+02 -0.25404867140E+03  0.31843015379E+03  0.17232729433E+03 0.  0.
         24    2    5    5    0    0 -0.46394654746E+01 -0.85831435734E+02 -0.16186245106E+03  0.19945489420E+03  0.78703505373E+02 0.  0.
          4    1    6    6  501    0  0.36542105967E+02 -0.50124947497E+02 -0.84946365193E+02  0.10518422329E+03  0.00000000000E+00 0. -1.
         -3    1    6    6    0  501 -0.41181571442E+02 -0.35706488237E+02 -0.76916085865E+02  0.94270670908E+02  0.00000000000E+00 0.  1.
          5    1    5    5  502    0 -0.64932081553E+02  0.37663615835E+02 -0.92186220346E+02  0.11897525959E+03  0.47000000000E+01 0. -1.
         11    1    4    4    0    0 -0.18049494444E+02  0.59182203748E+01  0.22221982834E+00  0.18996288157E+02  0.00000000000E+00 0. -1.
        -12    1    4    4    0    0  0.77101561237E+01  0.66017827786E+02 -0.17063177817E+03  0.18312018953E+03  0.00000000000E+00 0.  1.
         -5    1    3    3    0  504  0.79910885348E+02 -0.23768228262E+02 -0.10450569012E+03  0.13376923241E+03  0.47000000000E+01 0.  1.
<mgrwt>
<rscale>  2 0.19272908E+03</rscale>
<asrwt>0</asrwt>
<pdfrwt beam="1">  1       21 0.96424574E-02 0.19297880E+03</pdfrwt>
<pdfrwt beam="2">  1       21 0.91021521E-01 0.19297880E+03</pdfrwt>
<totfact> 0.88552877E+04</totfact>
</mgrwt>
</event>
<event>
12    1  0.2791583E-001  0.1871250E+03  0.7546771E-02  0.1161537E+00
         21   -1    0    0  502  503  0.00000000000E+00  0.00000000000E+00  0.21252512824E+04  0.21252512824E+04  0.00000000000E+00 0.  1.
         21   -1    0    0  503  504 -0.00000000000E+00 -0.00000000000E+00 -0.52541088169E+02  0.52541088169E+02  0.00000000000E+00 0.  1.
         -6    2    1    2    0  504 -0.53856577738E+02 -0.81716778475E+00  0.13374605377E+03  0.23000818108E+03  0.17920535074E+03 0.  0.
        -24    2    3    3    0    0  0.88899771716E+01 -0.58659642892E+02  0.59894906970E+02  0.11705259705E+03  0.81202987609E+02 0.  0.
          6    2    1    2  502    0  0.53856577738E+02  0.81716778475E+00  0.19389641404E+04  0.19477841895E+04  0.17714432566E+03 0.  0.
         24    2    5    5    0    0  0.10193178426E+02 -0.21596832014E+02  0.17663169650E+04  0.17682347060E+04  0.78791056722E+02 0.  0.
          2    1    6    6  501    0 -0.24845797161E+02 -0.28910818233E+02  0.51629827071E+03  0.51770363470E+03  0.00000000000E+00 0. -1.
         -1    1    6    6    0  501  0.35038975586E+02  0.73139862184E+01  0.12500186943E+04  0.12505310713E+04  0.00000000000E+00 0.  1.
          5    1    5    5  502    0  0.43663399313E+02  0.22413999799E+02  0.17264717539E+03  0.17954948342E+03  0.47000000000E+01 0. -1.
         11    1    4    4    0    0  0.13831801027E+02 -0.12923087295E+02  0.67784669221E+02  0.70378166261E+02  0.00000000000E+00 0. -1.
        -12    1    4    4    0    0 -0.49418238559E+01 -0.45736555598E+02 -0.78897622509E+01  0.46674430788E+02  0.00000000000E+00 0.  1.
         -5    1    3    3    0  504 -0.62746554910E+02  0.57842475108E+02  0.73851146802E+02  0.11295558403E+03  0.47000000000E+01 0.  1.
<mgrwt>
<rscale>  2 0.18662980E+03</rscale>
<asrwt>0</asrwt>
<pdfrwt beam="1">  1       21 0.32696167E+00 0.18712498E+03</pdfrwt>
<pdfrwt beam="2">  1       21 0.80832460E-02 0.18712498E+03</pdfrwt>
<totfact> 0.28314683E+03</totfact>
</mgrwt>
</event>
<event>
12    1  0.2791583E-001  0.1803993E+03  0.7546771E-02  0.1167472E+00
         21   -1    0    0  502  503  0.00000000000E+00  0.00000000000E+00  0.14746645300E+03  0.14746645300E+03  0.00000000000E+00 0. -1.
         21   -1    0    0  503  504 -0.00000000000E+00 -0.00000000000E+00 -0.31880925797E+03  0.31880925797E+03  0.00000000000E+00 0. -1.
         -6    2    1    2    0  504  0.28126888789E+02  0.41074834800E+02 -0.21515644624E+03  0.28063216586E+03  0.17315845990E+03 0.  0.
        -24    2    3    3    0    0  0.61317259776E+02  0.74361711356E+02 -0.18903504053E+03  0.22665036603E+03  0.79665999098E+02 0.  0.
          6    2    1    2  502    0 -0.28126888789E+02 -0.41074834800E+02  0.43813641269E+02  0.18564354511E+03  0.17339442538E+03 0.  0.
         24    2    5    5    0    0 -0.26923632152E+02 -0.11751665445E+02 -0.41831956389E+02  0.94987301605E+02  0.80060547600E+02 0.  0.
          2    1    6    6  501    0 -0.36391998254E+02 -0.29859588188E+02 -0.53656077829E+02  0.71378899064E+02  0.00000000000E+00 0. -1.
         -1    1    6    6    0  501  0.94683661015E+01  0.18107922743E+02  0.11824121440E+02  0.23608402541E+02  0.00000000000E+00 0.  1.
          5    1    5    5  502    0 -0.12032566367E+01 -0.29323169355E+02  0.85645597658E+02  0.90656243501E+02  0.47000000000E+01 0. -1.
         13    1    4    4    0    0  0.47529743703E+02  0.63661130373E+02 -0.19303541582E+03  0.20874503064E+03  0.00000000000E+00 0. -1.
        -14    1    4    4    0    0  0.13787516073E+02  0.10700580983E+02  0.40003752938E+01  0.17905335387E+02  0.00000000000E+00 0.  1.
         -5    1    3    3    0  504 -0.33190370987E+02 -0.33286876556E+02 -0.26121405707E+02  0.53981799833E+02  0.47000000000E+01 0.  1.
<mgrwt>
<rscale>  2 0.18034253E+03</rscale>
<asrwt>0</asrwt>
<pdfrwt beam="1">  1       21 0.22687147E-01 0.18039925E+03</pdfrwt>
<pdfrwt beam="2">  1       21 0.49047577E-01 0.18039925E+03</pdfrwt>
<totfact> 0.72613458E+04</totfact>
</mgrwt>
</event>
<event>
12    1  0.2791583E-001  0.1838929E+03  0.7546771E-02  0.1164114E+00
         21   -1    0    0  502  503  0.00000000000E+00  0.00000000000E+00  0.78140010321E+03  0.78140010321E+03  0.00000000000E+00 0. -1.
         21   -1    0    0  503  504 -0.00000000000E+00 -0.00000000000E+00 -0.61144016698E+02  0.61144016698E+02  0.00000000000E+00 0. -1.
         -6    2    1    2    0  504  0.53456367313E+02 -0.31724345489E+02  0.13231164125E+03  0.22654577059E+03  0.17306819020E+03 0.  0.
        -24    2    3    3    0    0  0.16045357876E+02 -0.35753697910E+02  0.36742483016E+00  0.89260718401E+02  0.80197010074E+02 0.  0.
          6    2    1    2  502    0 -0.53456367313E+02  0.31724345489E+02  0.58794444526E+03  0.61599834932E+03  0.17294877376E+03 0.  0.
         24    2    5    5    0    0  0.74487329814E+01 -0.23612309222E+02  0.16112372515E+03  0.18129201889E+03  0.79327905162E+02 0.  0.
          2    1    6    6  501    0 -0.33626665386E+02 -0.26420637737E+01  0.93854867906E+02  0.99731987625E+02  0.00000000000E+00 0. -1.
         -1    1    6    6    0  501  0.41075398367E+02 -0.20970245448E+02  0.67268857241E+02  0.81560031263E+02  0.00000000000E+00 0.  1.
          5    1    5    5  502    0 -0.60905100295E+02  0.55336654711E+02  0.42682072012E+03  0.43470633043E+03  0.47000000000E+01 0. -1.
         11    1    4    4    0    0  0.39254554060E+02 -0.48786868058E+02  0.11891336903E+01  0.62629805591E+02  0.00000000000E+00 0. -1.
        -12    1    4    4    0    0 -0.23209196185E+02  0.13033170148E+02 -0.82170886017E+00  0.26630912810E+02  0.00000000000E+00 0.  1.
         -5    1    3    3    0  504  0.37411009438E+02  0.40293524214E+01  0.13194421642E+03  0.13728505219E+03  0.47000000000E+01 0.  1.
<mgrwt>
<rscale>  2 0.18386484E+03</rscale>
<asrwt>0</asrwt>
<pdfrwt beam="1">  1       21 0.12021539E+00 0.18389295E+03</pdfrwt>
<pdfrwt beam="2">  1       21 0.94067724E-02 0.18389295E+03</pdfrwt>
<totfact> 0.47737499E+04</totfact>
</mgrwt>
</event>
<event>
12    1  0.2791583E-001  0.1820790E+03  0.7546771E-02  0.1165954E+00
         21   -1    0    0  502  503  0.00000000000E+00  0.00000000000E+00  0.55830161249E+03  0.55830161249E+03  0.00000000000E+00 0. -1.
         21   -1    0    0  503  504 -0.00000000000E+00 -0.00000000000E+00 -0.59763279189E+02  0.59763279189E+02  0.00000000000E+00 0. -1.
         -6    2    1    2    0  504  0.18598350377E+02 -0.52802603990E+02  0.27937513613E+03  0.33313458508E+03  0.17260988228E+03 0.  0.
        -24    2    3    3    0    0  0.59481817579E+02 -0.15482474958E+01  0.22580821756E+03  0.24834088416E+03  0.84518399980E+02 0.  0.
          6    2    1    2  502    0 -0.18598350377E+02  0.52802603990E+02  0.21916319717E+03  0.28493030660E+03  0.17325922487E+03 0.  0.
         24    2    5    5    0    0 -0.17307994795E+02 -0.38028743184E+02  0.96643221146E+02  0.13233530940E+03  0.80168384841E+02 0.  0.
          2    1    6    6  501    0 -0.92004487911E+01 -0.24716226049E+02 -0.71924391613E+01  0.27336262897E+02  0.00000000000E+00 0. -1.
         -1    1    6    6    0  501 -0.81075460035E+01 -0.13312517135E+02  0.10383566031E+03  0.10499904650E+03  0.00000000000E+00 0.  1.
          5    1    5    5  502    0 -0.12903555819E+01  0.90831347174E+02  0.12251997602E+03  0.15259499720E+03  0.47000000000E+01 0. -1.
         13    1    4    4    0    0  0.62097219031E+02  0.19979324096E+02  0.91958126817E+02  0.11274544377E+03  0.00000000000E+00 0. -1.
        -14    1    4    4    0    0 -0.26154014520E+01 -0.21527571592E+02  0.13385009074E+03  0.13559544039E+03  0.00000000000E+00 0.  1.
         -5    1    3    3    0  504 -0.40883467202E+02 -0.51254356494E+02  0.53566918572E+02  0.84793700918E+02  0.47000000000E+01 0.  1.
<mgrwt>
<rscale>  2 0.18192439E+03</rscale>
<asrwt>0</asrwt>
<pdfrwt beam="1">  1       21 0.85892552E-01 0.18207903E+03</pdfrwt>
<pdfrwt beam="2">  1       21 0.91943510E-02 0.18207903E+03</pdfrwt>
<totfact> 0.11052334E+05</totfact>
</mgrwt>
</event>
<event>
12    1  0.2791583E-001  0.2198799E+03  0.7546771E-02  0.1134249E+00
         21   -1    0    0  502  503  0.00000000000E+00  0.00000000000E+00  0.21291482052E+03  0.21291482052E+03  0.00000000000E+00 0. -1.
         21   -1    0    0  503  504 -0.00000000000E+00 -0.00000000000E+00 -0.26144718956E+03  0.26144718956E+03  0.00000000000E+00 0. -1.
         -6    2    1    2    0  504 -0.13685709239E+03 -0.14415717429E+02 -0.11221839120E+03  0.24686057805E+03  0.17149198530E+03 0.  0.
        -24    2    3    3    0    0 -0.13023965995E+03  0.22957799795E+02 -0.13210224940E+03  0.20375572891E+03  0.81092312667E+02 0.  0.
          6    2    1    2  502    0  0.13685709239E+03  0.14415717429E+02  0.63686022158E+02  0.22750143204E+03  0.16959751034E+03 0.  0.
         24    2    5    5    0    0  0.42110366189E+02 -0.24580698335E+02  0.78441803270E+02  0.12387959242E+03  0.82556303497E+02 0.  0.
          4    1    6    6  501    0  0.52756464370E+02 -0.35909657844E+02  0.25536794782E+02  0.68737733066E+02  0.00000000000E+00 0. -1.
         -3    1    6    6    0  501 -0.10646098181E+02  0.11328959509E+02  0.52905008488E+02  0.55141859355E+02  0.00000000000E+00 0.  1.
          5    1    5    5  502    0  0.94746726205E+02  0.38996415764E+02 -0.14755781112E+02  0.10362183962E+03  0.47000000000E+01 0. -1.
         13    1    4    4    0    0 -0.12440657741E+03 -0.48788541213E+01 -0.92990785643E+02  0.15539654416E+03  0.00000000000E+00 0. -1.
        -14    1    4    4    0    0 -0.58330825345E+01  0.27836653917E+02 -0.39111463756E+02  0.48359184756E+02  0.00000000000E+00 0.  1.
         -5    1    3    3    0  504 -0.66174324448E+01 -0.37373517225E+02  0.19883858199E+02  0.43104849133E+02  0.47000000000E+01 0.  1.
<mgrwt>
<rscale>  2 0.21951040E+03</rscale>
<asrwt>0</asrwt>
<pdfrwt beam="1">  1       21 0.32756126E-01 0.21987992E+03</pdfrwt>
<pdfrwt beam="2">  1       21 0.40222644E-01 0.21987992E+03</pdfrwt>
<totfact> 0.52757554E+04</totfact>
</mgrwt>
</event>
<event>
12    1  0.2791583E-001  0.1897743E+03  0.7546771E-02  0.1159178E+00
         21   -1    0    0  502  503  0.00000000000E+00  0.00000000000E+00  0.56163866399E+03  0.56163866399E+03  0.00000000000E+00 0. -1.
         21   -1    0    0  503  504 -0.00000000000E+00 -0.00000000000E+00 -0.19158985600E+03  0.19158985600E+03  0.00000000000E+00 0. -1.
         -6    2    1    2    0  504  0.61506905563E+02  0.37842459013E+02 -0.12344601772E+03  0.22450227311E+03  0.17305259375E+03 0.  0.
        -24    2    3    3    0    0  0.57721288099E+02 -0.56607033306E+01 -0.70427905323E+01  0.10008902087E+03  0.81267586022E+02 0.  0.
          6    2    1    2  502    0 -0.61506905563E+02 -0.37842459013E+02  0.49349482571E+03  0.52872624688E+03  0.17549686610E+03 0.  0.
         24    2    5    5    0    0  0.36462490162E+01  0.33906503735E+01  0.39673036415E+03  0.40490963297E+03  0.80821020720E+02 0.  0.
          2    1    6    6  501    0  0.47151214183E+01 -0.34250654035E+02  0.28307349558E+03  0.28517703900E+03  0.00000000000E+00 0. -1.
         -1    1    6    6    0  501 -0.10688724021E+01  0.37641304409E+02  0.11365686858E+03  0.11973259398E+03  0.00000000000E+00 0.  1.
          5    1    5    5  502    0 -0.65153154579E+02 -0.41233109386E+02  0.96764461552E+02  0.12381661391E+03  0.47000000000E+01 0. -1.
         13    1    4    4    0    0  0.44166273616E+02  0.27817922904E+02 -0.27060374405E+02  0.58794220998E+02  0.00000000000E+00 0. -1.
        -14    1    4    4    0    0  0.13555014483E+02 -0.33478626235E+02  0.20017583873E+02  0.41294799870E+02  0.00000000000E+00 0.  1.
         -5    1    3    3    0  504  0.37856174638E+01  0.43503162344E+02 -0.11640322719E+03  0.12441325224E+03  0.47000000000E+01 0.  1.
<mgrwt>
<rscale>  2 0.18920729E+03</rscale>
<asrwt>0</asrwt>
<pdfrwt beam="1">  1       21 0.86405948E-01 0.18977434E+03</pdfrwt>
<pdfrwt beam="2">  1       21 0.29475363E-01 0.18977434E+03</pdfrwt>
<totfact> 0.12752085E+04</totfact>
</mgrwt>
</event>
<event>
12    1  0.2791583E-001  0.2054570E+03  0.7546771E-02  0.1145461E+00
         21   -1    0    0  502  503  0.00000000000E+00  0.00000000000E+00  0.24965852473E+03  0.24965852473E+03  0.00000000000E+00 0.  1.
         21   -1    0    0  503  504 -0.00000000000E+00 -0.00000000000E+00 -0.20998367127E+03  0.20998367127E+03  0.00000000000E+00 0.  1.
         -6    2    1    2    0  504  0.72703887508E+02 -0.81870421232E+02 -0.82768876359E+02  0.22150230785E+03  0.17385040799E+03 0.  0.
        -24    2    3    3    0    0  0.10186708955E+03 -0.10400378450E+03 -0.55739617972E+02  0.17575245613E+03  0.81168526534E+02 0.  0.
          6    2    1    2  502    0 -0.72703887508E+02  0.81870421232E+02  0.12244372982E+03  0.23813988815E+03  0.17242249919E+03 0.  0.
         24    2    5    5    0    0 -0.98390896459E+02  0.10295921770E+03  0.74237705246E+02  0.17939918191E+03  0.79946610775E+02 0.  0.
          2    1    6    6  501    0 -0.22261582824E+02  0.22399079189E+02 -0.16975317437E+02  0.35853287442E+02  0.00000000000E+00 0. -1.
         -1    1    6    6    0  501 -0.76129313635E+02  0.80560138511E+02  0.91213022683E+02  0.14354589447E+03  0.00000000000E+00 0.  1.
          5    1    5    5  502    0  0.25687008951E+02 -0.21088796468E+02  0.48206024569E+02  0.58740706244E+02  0.47000000000E+01 0. -1.
         13    1    4    4    0    0  0.32809634020E+00 -0.88480015628E+01  0.16675790716E+02  0.18880592545E+02  0.00000000000E+00 0. -1.
        -14    1    4    4    0    0  0.10153899321E+03 -0.95155782941E+02 -0.72415408688E+02  0.15687186359E+03  0.00000000000E+00 0.  1.
         -5    1    3    3    0  504 -0.29163202044E+02  0.22133363272E+02 -0.27029258387E+02  0.45749851717E+02  0.47000000000E+01 0.  1.
<mgrwt>
<rscale>  2 0.20515464E+03</rscale>
<asrwt>0</asrwt>
<pdfrwt beam="1">  1       21 0.38409004E-01 0.20545702E+03</pdfrwt>
<pdfrwt beam="2">  1       21 0.32305180E-01 0.20545702E+03</pdfrwt>
<totfact> 0.59902649E+04</totfact>
</mgrwt>
</event>
<event>
12    1  0.2791583E-001  0.1892170E+03  0.7546771E-02  0.1161809E+00
         21   -1    0    0  502  503  0.00000000000E+00  0.00000000000E+00  0.21364602500E+03  0.21364602500E+03  0.00000000000E+00 0.  1.
         21   -1    0    0  503  504 -0.00000000000E+00 -0.00000000000E+00 -0.15805725778E+03  0.15805725778E+03  0.00000000000E+00 0.  1.
         -6    2    1    2    0  504  0.61398735870E+02  0.47276260822E+02  0.20465907792E+02  0.19032058846E+03  0.17262161918E+03 0.  0.
        -24    2    3    3    0    0  0.32241915945E+01  0.57917494962E+02 -0.39480364719E+02  0.10598104226E+03  0.79425754553E+02 0.  0.
          6    2    1    2  502    0 -0.61398735870E+02 -0.47276260822E+02  0.35122859424E+02  0.18138269432E+03  0.16019118871E+03 0.  0.
         24    2    5    5    0    0 -0.37169310414E+01 -0.21246514914E+02  0.70506915538E+02  0.10872693263E+03  0.79906762965E+02 0.  0.
          4    1    6    6  501    0  0.13851137041E+02 -0.37088633663E+02  0.74849969730E+02  0.84675490627E+02  0.00000000000E+00 0. -1.
         -3    1    6    6    0  501 -0.17568068082E+02  0.15842118749E+02 -0.43430541915E+01  0.24051442001E+02  0.00000000000E+00 0.  1.
          5    1    5    5  502    0 -0.57681804828E+02 -0.26029745908E+02 -0.35384056114E+02  0.72655761694E+02  0.47000000000E+01 0. -1.
         11    1    4    4    0    0  0.17298275618E+02  0.74517163419E+02 -0.28820167869E+02  0.81747416225E+02  0.00000000000E+00 0. -1.
        -12    1    4    4    0    0 -0.14074084023E+02 -0.16599668458E+02 -0.10660196850E+02  0.24233626037E+02  0.00000000000E+00 0.  1.
         -5    1    3    3    0  504  0.58174544275E+02 -0.10641234140E+02  0.59946272511E+02  0.84339546203E+02  0.47000000000E+01 0.  1.
<mgrwt>
<rscale>  2 0.18633497E+03</rscale>
<asrwt>0</asrwt>
<pdfrwt beam="1">  1       21 0.32868619E-01 0.18921700E+03</pdfrwt>
<pdfrwt beam="2">  1       21 0.24316501E-01 0.18921700E+03</pdfrwt>
<totfact> 0.14245025E+05</totfact>
</mgrwt>
</event>
<event>
12    1  0.2791583E-001  0.2556498E+03  0.7546771E-02  0.1109831E+00
         21   -1    0    0  502  503  0.00000000000E+00  0.00000000000E+00  0.17598854989E+03  0.17598854989E+03  0.00000000000E+00 0.  1.
         21   -1    0    0  503  504 -0.00000000000E+00 -0.00000000000E+00 -0.39010963510E+03  0.39010963510E+03  0.00000000000E+00 0. -1.
         -6    2    1    2    0  504  0.82225375954E+02  0.16878428939E+03 -0.44262624490E+02  0.25916377449E+03  0.17308244649E+03 0.  0.
        -24    2    3    3    0    0  0.15626579786E+02  0.16128855142E+03 -0.61224384142E+02  0.18987180504E+03  0.77747606537E+02 0.  0.
          6    2    1    2  502    0 -0.82225375954E+02 -0.16878428939E+03 -0.16985846073E+03  0.30693441050E+03  0.17351566751E+03 0.  0.
         24    2    5    5    0    0 -0.11053361148E+02 -0.16479568359E+03 -0.12882391571E+03  0.22454940851E+03  0.80913790438E+02 0.  0.
          2    1    6    6  501    0 -0.36301469498E+02 -0.13096105186E+03 -0.72103182588E+02  0.15384233075E+03  0.00000000000E+00 0. -1.
         -1    1    6    6    0  501  0.25248108349E+02 -0.33834631724E+02 -0.56720733124E+02  0.70707077759E+02  0.00000000000E+00 0.  1.
          5    1    5    5  502    0 -0.71172014806E+02 -0.39886058035E+01 -0.41034545014E+02  0.82385001986E+02  0.47000000000E+01 0. -1.
         13    1    4    4    0    0  0.14261294848E+02  0.94948376474E+02 -0.75326619926E+02  0.12203556201E+03  0.00000000000E+00 0. -1.
        -14    1    4    4    0    0  0.13652849381E+01  0.66340174946E+02  0.14102235784E+02  0.67836243034E+02  0.00000000000E+00 0.  1.
         -5    1    3    3    0  504  0.66598796169E+02  0.74957379691E+01  0.16961759652E+02  0.69291969443E+02  0.47000000000E+01 0.  1.
<mgrwt>
<rscale>  2 0.25557634E+03</rscale>
<asrwt>0</asrwt>
<pdfrwt beam="1">  1       21 0.27075162E-01 0.25564983E+03</pdfrwt>
<pdfrwt beam="2">  1       21 0.60016866E-01 0.25564983E+03</pdfrwt>
<totfact> 0.32646575E+04</totfact>
</mgrwt>
</event>
<event>
12    1  0.2791583E-001  0.2163112E+03  0.7546771E-02  0.1136807E+00
         21   -1    0    0  502  503  0.00000000000E+00  0.00000000000E+00  0.45348562292E+03  0.45348562292E+03  0.00000000000E+00 0. -1.
         21   -1    0    0  503  504 -0.00000000000E+00 -0.00000000000E+00 -0.14850224155E+03  0.14850224155E+03  0.00000000000E+00 0.  1.
         -6    2    1    2    0  504 -0.12334429805E+03  0.37747620412E+02 -0.14264731897E+02  0.21678101688E+03  0.17364281729E+03 0.  0.
        -24    2    3    3    0    0 -0.11477648578E+03  0.72200601610E+01 -0.66753640214E+02  0.15527886376E+03  0.80185448140E+02 0.  0.
          6    2    1    2  502    0  0.12334429805E+03 -0.37747620412E+02  0.31924811326E+03  0.38520684758E+03  0.17270280511E+03 0.  0.
         24    2    5    5    0    0  0.33363714369E+02 -0.70827847961E+02  0.12166010880E+03  0.16553910666E+03  0.80450557962E+02 0.  0.
          4    1    6    6  501    0 -0.11271974929E+02 -0.56154800171E+02  0.96561970794E+02  0.11227035764E+03  0.00000000000E+00 0. -1.
         -3    1    6    6    0  501  0.44635689297E+02 -0.14673047790E+02  0.25098138006E+02  0.53268749017E+02  0.00000000000E+00 0.  1.
          5    1    5    5  502    0  0.89980583685E+02  0.33080227548E+02  0.19758800446E+03  0.21966774092E+03  0.47000000000E+01 0. -1.
         11    1    4    4    0    0 -0.28058938977E+02 -0.25831300667E+02  0.43256571375E+01  0.38383218473E+02  0.00000000000E+00 0. -1.
        -12    1    4    4    0    0 -0.86717546802E+02  0.33051360828E+02 -0.71079297351E+02  0.11689564529E+03  0.00000000000E+00 0.  1.
         -5    1    3    3    0  504 -0.85678122745E+01  0.30527560251E+02  0.52488908317E+02  0.61502153120E+02  0.47000000000E+01 0.  1.
<mgrwt>
<rscale>  2 0.21612247E+03</rscale>
<asrwt>0</asrwt>
<pdfrwt beam="1">  1       21 0.69767018E-01 0.21631118E+03</pdfrwt>
<pdfrwt beam="2">  1       21 0.22846499E-01 0.21631118E+03</pdfrwt>
<totfact> 0.33131825E+04</totfact>
</mgrwt>
</event>
<event>
12    1  0.2791583E-001  0.2334197E+03  0.7546771E-02  0.1124634E+00
         21   -1    0    0  502  503  0.00000000000E+00  0.00000000000E+00  0.23996078008E+04  0.23996078008E+04  0.00000000000E+00 0. -1.
         21   -1    0    0  503  504 -0.00000000000E+00 -0.00000000000E+00 -0.27804334502E+02  0.27804334502E+02  0.00000000000E+00 0. -1.
         -6    2    1    2    0  504  0.94501529176E+02 -0.12048032959E+03  0.65100650790E+03  0.69085608084E+03  0.17328185788E+03 0.  0.
        -24    2    3    3    0    0 -0.74542923843E+00 -0.47709026118E+02  0.42385195407E+03  0.43397298092E+03  0.80033507770E+02 0.  0.
          6    2    1    2  502    0 -0.94501529176E+02  0.12048032959E+03  0.17207969584E+04  0.17365560545E+04  0.17617806173E+03 0.  0.
         24    2    5    5    0    0 -0.88868533923E+02  0.61350595657E+01  0.87758895921E+03  0.88559871634E+03  0.78660344400E+02 0.  0.
          4    1    6    6  501    0 -0.88051352594E+02 -0.21931521468E+02  0.67684899847E+03  0.68290453144E+03  0.00000000000E+00 0. -1.
         -3    1    6    6    0  501 -0.81718132940E+00  0.28066581033E+02  0.20073996073E+03  0.20269418490E+03  0.00000000000E+00 0.  1.
          5    1    5    5  502    0 -0.56329952528E+01  0.11434527002E+03  0.84320799923E+03  0.85095733817E+03  0.47000000000E+01 0. -1.
         11    1    4    4    0    0  0.36620926765E+02 -0.36484517298E+02  0.19084430135E+03  0.19772141926E+03  0.00000000000E+00 0. -1.
        -12    1    4    4    0    0 -0.37366356003E+02 -0.11224508820E+02  0.23300765272E+03  0.23625156166E+03  0.00000000000E+00 0.  1.
         -5    1    3    3    0  504  0.95246958415E+02 -0.72771303468E+02  0.22715455384E+03  0.25688309992E+03  0.47000000000E+01 0.  1.
<mgrwt>
<rscale>  2 0.23287325E+03</rscale>
<asrwt>0</asrwt>
<pdfrwt beam="1">  1       21 0.36917027E+00 0.23341970E+03</pdfrwt>
<pdfrwt beam="2">  1       21 0.42775918E-02 0.23341970E+03</pdfrwt>
<totfact> 0.44795537E+03</totfact>
</mgrwt>
</event>
<event>
12    1  0.2791583E-001  0.2043005E+03  0.7546771E-02  0.1146468E+00
         21   -1    0    0  502  503  0.00000000000E+00  0.00000000000E+00  0.15376879260E+03  0.15376879260E+03  0.00000000000E+00 0. -1.
         21   -1    0    0  503  504 -0.00000000000E+00 -0.00000000000E+00 -0.49521410916E+03  0.49521410916E+03  0.00000000000E+00 0. -1.
         -6    2    1    2    0  504 -0.29950825845E+02  0.10230179563E+03 -0.38947362983E+03  0.43911287838E+03  0.17253319177E+03 0.  0.
        -24    2    3    3    0    0 -0.55295085628E+02  0.12911198581E+03 -0.34476067425E+03  0.38095399085E+03  0.80861420088E+02 0.  0.
          6    2    1    2  502    0  0.29950825845E+02 -0.10230179563E+03  0.48028313270E+02  0.20987002338E+03  0.17428711507E+03 0.  0.
         24    2    5    5    0    0 -0.34946316541E+02 -0.33780373658E+02 -0.12894166221E+02  0.97440210314E+02  0.83462424955E+02 0.  0.
          2    1    6    6  501    0 -0.57151597685E+02 -0.30138244314E+02  0.99520598979E+01  0.65373254352E+02  0.00000000000E+00 0. -1.
         -1    1    6    6    0  501  0.22205281144E+02 -0.36421293446E+01 -0.22846226119E+02  0.32066955963E+02  0.00000000000E+00 0.  1.
          5    1    5    5  502    0  0.64897142386E+02 -0.68521421971E+02  0.60922479491E+02  0.11242981307E+03  0.47000000000E+01 0. -1.
         13    1    4    4    0    0 -0.47565366900E+02  0.97559745642E+02 -0.32565696452E+03  0.34326786427E+03  0.00000000000E+00 0. -1.
        -14    1    4    4    0    0 -0.77297187281E+01  0.31552240170E+02 -0.19103709734E+02  0.37686126584E+02  0.00000000000E+00 0.  1.
         -5    1    3    3    0  504  0.25344259783E+02 -0.26810190182E+02 -0.44712955579E+02  0.58158887525E+02  0.47000000000E+01 0.  1.
<mgrwt>
<rscale>  2 0.20392596E+03</rscale>
<asrwt>0</asrwt>
<pdfrwt beam="1">  1       21 0.23656737E-01 0.20430053E+03</pdfrwt>
<pdfrwt beam="2">  1       21 0.76186787E-01 0.20430053E+03</pdfrwt>
<totfact> 0.25656293E+04</totfact>
</mgrwt>
</event>
<event>
12    1  0.2791583E-001  0.2129874E+03  0.7546771E-02  0.1139394E+00
         21   -1    0    0  502  503  0.00000000000E+00  0.00000000000E+00  0.11956296993E+03  0.11956296993E+03  0.00000000000E+00 0. -1.
         21   -1    0    0  503  504 -0.00000000000E+00 -0.00000000000E+00 -0.45802164927E+03  0.45802164927E+03  0.00000000000E+00 0.  1.
         -6    2    1    2    0  504 -0.12105122639E+03  0.25208075415E+02 -0.28977261557E+03  0.35910356748E+03  0.17233211240E+03 0.  0.
        -24    2    3    3    0    0 -0.55010651788E+00  0.36274494717E+02 -0.93502615902E+02  0.12848052376E+03  0.80301707453E+02 0.  0.
          6    2    1    2  502    0  0.12105122639E+03 -0.25208075415E+02 -0.48686063771E+02  0.21848105171E+03  0.17342084845E+03 0.  0.
         24    2    5    5    0    0  0.14669041493E+03  0.46989402856E+01 -0.61680456407E+02  0.17673489240E+03  0.76750150598E+02 0.  0.
          4    1    6    6  501    0 -0.71021180470E+01  0.85662249219E+01 -0.39053410059E+00  0.11134307659E+02  0.00000000000E+00 0. -1.
         -3    1    6    6    0  501  0.15379253298E+03 -0.38672846363E+01 -0.61289922306E+02  0.16560058474E+03  0.00000000000E+00 0.  1.
          5    1    5    5  502    0 -0.25639188545E+02 -0.29907015701E+02  0.12994392635E+02  0.41746159312E+02  0.47000000000E+01 0. -1.
         13    1    4    4    0    0  0.26855946952E+02 -0.53360900159E+01 -0.66259172896E+02  0.71693749632E+02  0.00000000000E+00 0. -1.
        -14    1    4    4    0    0 -0.27406053470E+02  0.41610584733E+02 -0.27243443006E+02  0.56786774124E+02  0.00000000000E+00 0.  1.
         -5    1    3    3    0  504 -0.12050111987E+03 -0.11066419302E+02 -0.19626999967E+03  0.23062304373E+03  0.47000000000E+01 0.  1.
<mgrwt>
<rscale>  2 0.21276568E+03</rscale>
<asrwt>0</asrwt>
<pdfrwt beam="1">  1       21 0.18394303E-01 0.21298741E+03</pdfrwt>
<pdfrwt beam="2">  1       21 0.70464868E-01 0.21298741E+03</pdfrwt>
<totfact> 0.48763572E+04</totfact>
</mgrwt>
</event>
<event>
12    1  0.2791583E-001  0.2365988E+03  0.7546771E-02  0.1122108E+00
         21   -1    0    0  502  503  0.00000000000E+00  0.00000000000E+00  0.77924052408E+03  0.77924052408E+03  0.00000000000E+00 0. -1.
         21   -1    0    0  503  504 -0.00000000000E+00 -0.00000000000E+00 -0.73911064171E+02  0.73911064171E+02  0.00000000000E+00 0. -1.
         -6    2    1    2    0  504  0.70952077542E+02  0.14435027328E+03  0.42484959416E+03  0.48620753124E+03  0.17328989317E+03 0.  0.
        -24    2    3    3    0    0  0.22584810172E+02  0.83520830025E+02  0.76659647961E+02  0.12941915930E+03  0.58196344126E+02 0.  0.
          6    2    1    2  502    0 -0.70952077542E+02 -0.14435027328E+03  0.28047986575E+03  0.36694405701E+03  0.17351595656E+03 0.  0.
         24    2    5    5    0    0 -0.17331132930E+02 -0.26361555002E+00  0.10585325804E+03  0.13423670268E+03  0.80710237571E+02 0.  0.
          4    1    6    6  501    0  0.59543491907E+01 -0.34805873555E+02  0.73320767633E+02  0.81380821294E+02  0.00000000000E+00 0. -1.
         -3    1    6    6    0  501 -0.23285482120E+02  0.34542258005E+02  0.32532490403E+02  0.52855881390E+02  0.00000000000E+00 0.  1.
          5    1    5    5  502    0 -0.53620944612E+02 -0.14408665773E+03  0.17462660772E+03  0.23270735433E+03  0.47000000000E+01 0. -1.
         13    1    4    4    0    0 -0.42590706684E+01  0.68660978792E+02  0.69752785400E+02  0.97968978574E+02  0.00000000000E+00 0. -1.
        -14    1    4    4    0    0  0.26843880840E+02  0.14859851232E+02  0.69068625607E+01  0.31450180725E+02  0.00000000000E+00 0.  1.
         -5    1    3    3    0  504  0.48367267370E+02  0.60829443254E+02  0.34818994620E+03  0.35678837194E+03  0.47000000000E+01 0.  1.
<mgrwt>
<rscale>  2 0.23655734E+03</rscale>
<asrwt>0</asrwt>
<pdfrwt beam="1">  1       21 0.11988315E+00 0.23659879E+03</pdfrwt>
<pdfrwt beam="2">  1       21 0.11370933E-01 0.23659879E+03</pdfrwt>
<totfact> 0.33395392E+04</totfact>
</mgrwt>
</event>
<event>
12    1  0.2791583E-001  0.1752131E+03  0.7546771E-02  0.1172590E+00
         21   -1    0    0  502  503  0.00000000000E+00  0.00000000000E+00  0.96166868619E+03  0.96166868619E+03  0.00000000000E+00 0. -1.
         21   -1    0    0  503  504 -0.00000000000E+00 -0.00000000000E+00 -0.43063155100E+02  0.43063155100E+02  0.00000000000E+00 0. -1.
         -6    2    1    2    0  504 -0.27032516970E+02 -0.35273479461E+01  0.20291882219E+03  0.26790954676E+03  0.17278969209E+03 0.  0.
        -24    2    3    3    0    0  0.29144247019E+02  0.41393701108E+02  0.91272536334E+02  0.13501593290E+03  0.85649288510E+02 0.  0.
          6    2    1    2  502    0  0.27032516970E+02  0.35273479461E+01  0.71568670890E+03  0.73682229452E+03  0.17307925715E+03 0.  0.
         24    2    5    5    0    0 -0.50495688110E+02  0.15232971095E+02  0.36401961422E+03  0.37648983738E+03  0.80327206985E+02 0.  0.
          2    1    6    6  501    0 -0.70099719692E+02  0.15970086497E+02  0.32449607667E+03  0.33236533835E+03  0.00000000000E+00 0. -1.
         -1    1    6    6    0  501  0.19604031582E+02 -0.73711540167E+00  0.39523537551E+02  0.44124499021E+02  0.00000000000E+00 0.  1.
          5    1    5    5  502    0  0.77528205080E+02 -0.11705623149E+02  0.35166709468E+03  0.36033245715E+03  0.47000000000E+01 0. -1.
         13    1    4    4    0    0 -0.30326303206E+02  0.14565338352E+02  0.24169080937E+02  0.41424367476E+02  0.00000000000E+00 0. -1.
        -14    1    4    4    0    0  0.59470550225E+02  0.26828362756E+02  0.67103455397E+02  0.93591565424E+02  0.00000000000E+00 0.  1.
         -5    1    3    3    0  504 -0.56176763989E+02 -0.44921049054E+02  0.11164628585E+03  0.13289361386E+03  0.47000000000E+01 0.  1.
<mgrwt>
<rscale>  2 0.17514154E+03</rscale>
<asrwt>0</asrwt>
<pdfrwt beam="1">  1       21 0.14794901E+00 0.17521309E+03</pdfrwt>
<pdfrwt beam="2">  1       21 0.66251015E-02 0.17521309E+03</pdfrwt>
<totfact> 0.52051986E+04</totfact>
</mgrwt>
</event>
<event>
12    1  0.2791583E-001  0.1762429E+03  0.7546771E-02  0.1171510E+00
         21   -1    0    0  502  503  0.00000000000E+00  0.00000000000E+00  0.55436369649E+03  0.55436369649E+03  0.00000000000E+00 0. -1.
         21   -1    0    0  503  504 -0.00000000000E+00 -0.00000000000E+00 -0.65836866921E+02  0.65836866921E+02  0.00000000000E+00 0. -1.
         -6    2    1    2    0  504 -0.10127041878E+02  0.32754581689E+02  0.12437694645E+03  0.21564316353E+03  0.17279157841E+03 0.  0.
        -24    2    3    3    0    0 -0.44263757983E+02  0.70871658694E+02  0.12007045307E+03  0.16407900125E+03  0.74316436093E+02 0.  0.
          6    2    1    2  502    0  0.10127041878E+02 -0.32754581689E+02  0.36414988312E+03  0.40455739989E+03  0.17287606205E+03 0.  0.
         24    2    5    5    0    0 -0.34197320530E+02  0.21008139281E+02  0.11040733176E+03  0.14137979514E+03  0.78661737334E+02 0.  0.
          4    1    6    6  501    0 -0.19413610844E+02  0.40947927148E+02  0.10715712331E+03  0.11634547735E+03  0.00000000000E+00 0. -1.
         -3    1    6    6    0  501 -0.14783709686E+02 -0.19939787867E+02  0.32502084475E+01  0.25034317790E+02  0.00000000000E+00 0.  1.
          5    1    5    5  502    0  0.44324362408E+02 -0.53762720971E+02  0.25374255136E+03  0.26317760475E+03  0.47000000000E+01 0. -1.
         11    1    4    4    0    0 -0.45144991870E+02  0.16536908846E+02  0.89836376945E+02  0.10189266052E+03  0.00000000000E+00 0. -1.
        -12    1    4    4    0    0  0.88123388722E+00  0.54334749848E+02  0.30234076127E+02  0.62186340731E+02  0.00000000000E+00 0.  1.
         -5    1    3    3    0  504  0.34136716105E+02 -0.38117077005E+02  0.43064933783E+01  0.51564162274E+02  0.47000000000E+01 0.  1.
<mgrwt>
<rscale>  2 0.17622216E+03</rscale>
<asrwt>0</asrwt>
<pdfrwt beam="1">  1       21 0.85286719E-01 0.17624288E+03</pdfrwt>
<pdfrwt beam="2">  1       21 0.10128749E-01 0.17624288E+03</pdfrwt>
<totfact> 0.94962045E+04</totfact>
</mgrwt>
</event>
<event>
12    1  0.2791583E-001  0.2448634E+03  0.7546771E-02  0.1117063E+00
         21   -1    0    0  502  503  0.00000000000E+00  0.00000000000E+00  0.51032109718E+03  0.51032109718E+03  0.00000000000E+00 0.  1.
         21   -1    0    0  503  504 -0.00000000000E+00 -0.00000000000E+00 -0.13484007648E+03  0.13484007648E+03  0.00000000000E+00 0.  1.
         -6    2    1    2    0  504  0.16157537834E+03  0.51232705882E+02  0.66588480191E+02  0.25098775938E+03  0.17271200487E+03 0.  0.
        -24    2    3    3    0    0  0.71703152811E+02  0.62719228358E+02  0.94868712394E+02  0.15595713982E+03  0.79041211663E+02 0.  0.
          6    2    1    2  502    0 -0.16157537834E+03 -0.51232705882E+02  0.30889254051E+03  0.39417341427E+03  0.17671074076E+03 0.  0.
         24    2    5    5    0    0 -0.99226171827E+02 -0.59741699444E+02  0.29852081589E+03  0.33022430015E+03  0.80737271858E+02 0.  0.
          4    1    6    6  501    0 -0.89099886240E+02 -0.14705210733E+02  0.23458112929E+03  0.25136296301E+03  0.00000000000E+00 0. -1.
         -3    1    6    6    0  501 -0.10126285587E+02 -0.45036488711E+02  0.63939686594E+02  0.78861337149E+02  0.00000000000E+00 0.  1.
          5    1    5    5  502    0 -0.62349206518E+02  0.85089935613E+01  0.10371724619E+02  0.63949114117E+02  0.47000000000E+01 0. -1.
         13    1    4    4    0    0 -0.51433161910E+01  0.12074074275E+02  0.53440533296E+02  0.55028425109E+02  0.00000000000E+00 0. -1.
        -14    1    4    4    0    0  0.76846469002E+02  0.50645154083E+02  0.41428179099E+02  0.10092871471E+03  0.00000000000E+00 0.  1.
         -5    1    3    3    0  504  0.89872225534E+02 -0.11486522476E+02 -0.28280232203E+02  0.95030619563E+02  0.47000000000E+01 0.  1.
<mgrwt>
<rscale>  2 0.24414273E+03</rscale>
<asrwt>0</asrwt>
<pdfrwt beam="1">  1       21 0.78510937E-01 0.24486339E+03</pdfrwt>
<pdfrwt beam="2">  1       21 0.20744627E-01 0.24486339E+03</pdfrwt>
<totfact> 0.30113434E+04</totfact>
</mgrwt>
</event>
<event>
12    1  0.2791583E-001  0.2084128E+03  0.7546771E-02  0.1142904E+00
         21   -1    0    0  502  503  0.00000000000E+00  0.00000000000E+00  0.47132792563E+03  0.47132792563E+03  0.00000000000E+00 0.  1.
         21   -1    0    0  503  504 -0.00000000000E+00 -0.00000000000E+00 -0.92058667718E+02  0.92058667718E+02  0.00000000000E+00 0.  1.
         -6    2    1    2    0  504 -0.10120026369E+03  0.54167049229E+02  0.18177457397E+03  0.27626285769E+03  0.17350391409E+03 0.  0.
        -24    2    3    3    0    0 -0.13654997886E+03  0.54851791562E+02  0.16857980644E+03  0.23823309140E+03  0.81738845926E+02 0.  0.
          6    2    1    2  502    0  0.10120026369E+03 -0.54167049229E+02  0.19749468394E+03  0.28712373566E+03  0.17395495623E+03 0.  0.
         24    2    5    5    0    0  0.18771374103E+02  0.32674636390E+02  0.76149703729E+02  0.11658724565E+03  0.79836157983E+02 0.  0.
          4    1    6    6  501    0 -0.13187441430E+02 -0.65805656473E+01 -0.91868663619E+01  0.17366950488E+02  0.00000000000E+00 0. -1.
         -3    1    6    6    0  501  0.31958815533E+02  0.39255202037E+02  0.85336570091E+02  0.99220295163E+02  0.00000000000E+00 0.  1.
          5    1    5    5  502    0  0.82428889590E+02 -0.86841685619E+02  0.12134498021E+03  0.17053649001E+03  0.47000000000E+01 0. -1.
         13    1    4    4    0    0  0.41556987784E+01  0.23430704015E+02  0.29623925700E+02  0.37997956483E+02  0.00000000000E+00 0. -1.
        -14    1    4    4    0    0 -0.14070567764E+03  0.31421087547E+02  0.13895588074E+03  0.20023513492E+03  0.00000000000E+00 0.  1.
         -5    1    3    3    0  504  0.35349715165E+02 -0.68474233245E+00  0.13194767528E+02  0.38029766295E+02  0.47000000000E+01 0.  1.
<mgrwt>
<rscale>  2 0.20831864E+03</rscale>
<asrwt>0</asrwt>
<pdfrwt beam="1">  1       21 0.72511987E-01 0.20841279E+03</pdfrwt>
<pdfrwt beam="2">  1       21 0.14162872E-01 0.20841279E+03</pdfrwt>
<totfact> 0.74103491E+04</totfact>
</mgrwt>
</event>
<event>
12    1  0.2791583E-001  0.1805524E+03  0.7546771E-02  0.1167505E+00
         21   -1    0    0  502  503  0.00000000000E+00  0.00000000000E+00  0.22281352690E+03  0.22281352690E+03  0.00000000000E+00 0. -1.
         21   -1    0    0  503  504 -0.00000000000E+00 -0.00000000000E+00 -0.23249985822E+03  0.23249985822E+03  0.00000000000E+00 0. -1.
         -6    2    1    2    0  504 -0.14204067923E+01 -0.50413175508E+02 -0.14409563786E+03  0.23100374612E+03  0.17336571763E+03 0.  0.
        -24    2    3    3    0    0  0.32972456507E+02  0.31957397127E+02 -0.91743283483E+02  0.12741494706E+03  0.75559781297E+02 0.  0.
          6    2    1    2  502    0  0.14204067923E+01  0.50413175508E+02  0.13440930653E+03  0.22430963901E+03  0.17235268101E+03 0.  0.
         24    2    5    5    0    0 -0.43271236175E+02  0.21509355868E+02  0.14060190602E+03  0.17052105259E+03  0.83507371699E+02 0.  0.
          2    1    6    6  501    0 -0.43799504131E+02  0.25221284583E+02  0.15112357077E+03  0.15935132068E+03  0.00000000000E+00 0. -1.
         -1    1    6    6    0  501  0.52826795620E+00 -0.37119287149E+01 -0.10521664751E+02  0.11169731910E+02  0.00000000000E+00 0.  1.
          5    1    5    5  502    0  0.44691642967E+02  0.28903819640E+02 -0.61925994894E+01  0.53788586422E+02  0.47000000000E+01 0. -1.
         11    1    4    4    0    0 -0.21365206097E+02  0.23983213681E+02 -0.45055004556E+02  0.55331907663E+02  0.00000000000E+00 0. -1.
        -12    1    4    4    0    0  0.54337662604E+02  0.79741834456E+01 -0.46688278927E+02  0.72083039393E+02  0.00000000000E+00 0.  1.
         -5    1    3    3    0  504 -0.34392863299E+02 -0.82370572635E+02 -0.52352354374E+02  0.10358879906E+03  0.47000000000E+01 0.  1.
<mgrwt>
<rscale>  2 0.18030881E+03</rscale>
<asrwt>0</asrwt>
<pdfrwt beam="1">  1       21 0.34279004E-01 0.18055242E+03</pdfrwt>
<pdfrwt beam="2">  1       21 0.35769209E-01 0.18055242E+03</pdfrwt>
<totfact> 0.62136523E+04</totfact>
</mgrwt>
</event>
<event>
12    1  0.2791583E-001  0.1812709E+03  0.7546771E-02  0.1166739E+00
         21   -1    0    0  502  503  0.00000000000E+00  0.00000000000E+00  0.18813532383E+03  0.18813532383E+03  0.00000000000E+00 0.  1.
         21   -1    0    0  503  504 -0.00000000000E+00 -0.00000000000E+00 -0.68540078927E+03  0.68540078927E+03  0.00000000000E+00 0.  1.
         -6    2    1    2    0  504  0.51834505861E+02 -0.12366925157E+02 -0.62602072129E+03  0.65173696868E+03  0.17326100552E+03 0.  0.
        -24    2    3    3    0    0  0.80370174374E+02  0.21937110069E+01 -0.25254741394E+03  0.27686272603E+03  0.80053703730E+02 0.  0.
          6    2    1    2  502    0 -0.51834505861E+02  0.12366925157E+02  0.12875525584E+03  0.22179914442E+03  0.17256067838E+03 0.  0.
         24    2    5    5    0    0 -0.32857527991E+02 -0.51969690970E+02  0.42194401577E+02  0.11218985032E+03  0.83819622191E+02 0.  0.
          4    1    6    6  501    0  0.19777862285E+02 -0.45688893647E+02  0.12104461708E+02  0.51236284335E+02  0.00000000000E+00 0. -1.
         -3    1    6    6    0  501 -0.52635390275E+02 -0.62807973231E+01  0.30089939869E+02  0.60953565981E+02  0.00000000000E+00 0.  1.
          5    1    5    5  502    0 -0.18976977870E+02  0.64336616127E+02  0.86560854259E+02  0.10960929410E+03  0.47000000000E+01 0. -1.
         11    1    4    4    0    0  0.97618310346E+01 -0.12709945137E+02 -0.20246658874E+01  0.16153492579E+02  0.00000000000E+00 0. -1.
        -12    1    4    4    0    0  0.70608343340E+02  0.14903656144E+02 -0.25052274805E+03  0.26070923345E+03  0.00000000000E+00 0.  1.
         -5    1    3    3    0  504 -0.28535668513E+02 -0.14560636164E+02 -0.37347330735E+03  0.37487424265E+03  0.47000000000E+01 0.  1.
<mgrwt>
<rscale>  2 0.18110333E+03</rscale>
<asrwt>0</asrwt>
<pdfrwt beam="1">  1       21 0.28943896E-01 0.18127088E+03</pdfrwt>
<pdfrwt beam="2">  1       21 0.10544627E+00 0.18127088E+03</pdfrwt>
<totfact> 0.83327998E+03</totfact>
</mgrwt>
</event>
<event>
12    1  0.2791583E-001  0.2286726E+03  0.7546771E-02  0.1127625E+00
         21   -1    0    0  502  503  0.00000000000E+00  0.00000000000E+00  0.41476144718E+03  0.41476144718E+03  0.00000000000E+00 0. -1.
         21   -1    0    0  503  504 -0.00000000000E+00 -0.00000000000E+00 -0.33666179413E+03  0.33666179413E+03  0.00000000000E+00 0.  1.
         -6    2    1    2    0  504  0.14529000771E+03  0.33232970542E+02 -0.25819310770E+03  0.34489828660E+03  0.17342874780E+03 0.  0.
        -24    2    3    3    0    0  0.56066770577E+02  0.63003383526E+02 -0.19913946405E+03  0.23373855305E+03  0.88680752946E+02 0.  0.
          6    2    1    2  502    0 -0.14529000771E+03 -0.33232970542E+02  0.33629276076E+03  0.40652495471E+03  0.17307830944E+03 0.  0.
         24    2    5    5    0    0 -0.15024595628E+03 -0.72722029501E+02  0.24853564805E+03  0.31005035684E+03  0.80615845057E+02 0.  0.
          4    1    6    6  501    0 -0.10255529355E+03 -0.78884798790E+02  0.21667606678E+03  0.25236663336E+03  0.00000000000E+00 0. -1.
         -3    1    6    6    0  501 -0.47690662728E+02  0.61627692884E+01  0.31859581267E+02  0.57683723486E+02  0.00000000000E+00 0.  1.
          5    1    5    5  502    0  0.49559485703E+01  0.39489058959E+02  0.87757112708E+02  0.96474597872E+02  0.47000000000E+01 0. -1.
         11    1    4    4    0    0 -0.20868886870E+00  0.35571116276E+02 -0.13875019467E+02  0.38181985666E+02  0.00000000000E+00 0. -1.
        -12    1    4    4    0    0  0.56275459446E+02  0.27432267249E+02 -0.18526444458E+03  0.19555656738E+03  0.00000000000E+00 0.  1.
         -5    1    3    3    0  504  0.89223237129E+02 -0.29770412983E+02 -0.59053643656E+02  0.11115973355E+03  0.47000000000E+01 0.  1.
<mgrwt>
<rscale>  2 0.22860613E+03</rscale>
<asrwt>0</asrwt>
<pdfrwt beam="1">  1       21 0.63809453E-01 0.22867258E+03</pdfrwt>
<pdfrwt beam="2">  1       21 0.51794123E-01 0.22867258E+03</pdfrwt>
<totfact> 0.78355391E+03</totfact>
</mgrwt>
</event>
<event>
12    1  0.2791583E-001  0.2586545E+03  0.7546771E-02  0.1108823E+00
         21   -1    0    0  502  503  0.00000000000E+00  0.00000000000E+00  0.90733771363E+02  0.90733771363E+02  0.00000000000E+00 0.  1.
         21   -1    0    0  503  504 -0.00000000000E+00 -0.00000000000E+00 -0.73790310691E+03  0.73790310691E+03  0.00000000000E+00 0.  1.
         -6    2    1    2    0  504 -0.14055485771E+03  0.12030249995E+03 -0.26484809838E+03  0.37019814935E+03  0.18075894182E+03 0.  0.
        -24    2    3    3    0    0 -0.31395550535E+02  0.10768949411E+03 -0.20112835320E+03  0.24308741737E+03  0.77821399928E+02 0.  0.
          6    2    1    2  502    0  0.14055485771E+03 -0.12030249995E+03 -0.38232123717E+03  0.45843872892E+03  0.17253457700E+03 0.  0.
         24    2    5    5    0    0  0.80203167121E+01 -0.10425135302E+03 -0.14640616190E+03  0.18732794600E+03  0.52195067031E+02 0.  0.
          4    1    6    6  501    0 -0.77140310259E+01 -0.89573684719E+02 -0.13695097591E+03  0.16382466564E+03  0.00000000000E+00 0. -1.
         -3    1    6    6    0  501  0.15734347738E+02 -0.14677668305E+02 -0.94551859907E+01  0.23503280361E+02  0.00000000000E+00 0.  1.
          5    1    5    5  502    0  0.13253454100E+03 -0.16051146930E+02 -0.23591507527E+03  0.27111078292E+03  0.47000000000E+01 0. -1.
         13    1    4    4    0    0 -0.31552926065E+02  0.18043341367E+02 -0.21238391451E+02  0.42097726570E+02  0.00000000000E+00 0. -1.
        -14    1    4    4    0    0  0.15737553068E+00  0.89646152747E+02 -0.17988996175E+03  0.20098969080E+03  0.00000000000E+00 0.  1.
         -5    1    3    3    0  504 -0.10915930718E+03  0.12613005841E+02 -0.63719745173E+02  0.12711073198E+03  0.47000000000E+01 0.  1.
<mgrwt>
<rscale>  2 0.25722288E+03</rscale>
<asrwt>0</asrwt>
<pdfrwt beam="1">  1       21 0.13959042E-01 0.25865451E+03</pdfrwt>
<pdfrwt beam="2">  1       21 0.11352355E+00 0.25865451E+03</pdfrwt>
<totfact> 0.26104054E+04</totfact>
</mgrwt>
</event>
<event>
12    1  0.2791583E-001  0.2039544E+03  0.7546771E-02  0.1147203E+00
         21   -1    0    0  502  503  0.00000000000E+00  0.00000000000E+00  0.12935261287E+03  0.12935261287E+03  0.00000000000E+00 0.  1.
         21   -1    0    0  503  504 -0.00000000000E+00 -0.00000000000E+00 -0.43780008008E+03  0.43780008008E+03  0.00000000000E+00 0.  1.
         -6    2    1    2    0  504  0.65382512917E+02  0.80074679023E+02 -0.30288025499E+03  0.36312236693E+03  0.17156508177E+03 0.  0.
        -24    2    3    3    0    0  0.16409164208E+02  0.49783331303E+02 -0.47236546155E+02  0.10103125586E+03  0.72307555780E+02 0.  0.
          6    2    1    2  502    0 -0.65382512917E+02 -0.80074679023E+02 -0.55672122205E+01  0.20403032603E+03  0.17581397234E+03 0.  0.
         24    2    5    5    0    0 -0.93879573892E+02 -0.10289545289E+02  0.18147163737E+02  0.12486904129E+03  0.79647402870E+02 0.  0.
          2    1    6    6  501    0 -0.92165146392E+02 -0.29216634556E+02  0.31449477993E+02  0.10167150835E+03  0.00000000000E+00 0. -1.
         -1    1    6    6    0  501 -0.17144274998E+01  0.18927089267E+02 -0.13302314256E+02  0.23197532937E+02  0.00000000000E+00 0.  1.
          5    1    5    5  502    0  0.28497060975E+02 -0.69785133734E+02 -0.23714375958E+02  0.79161284739E+02  0.47000000000E+01 0. -1.
         13    1    4    4    0    0  0.15106179149E+02  0.49680084056E+02 -0.65014271194E+02  0.83205545844E+02  0.00000000000E+00 0. -1.
        -14    1    4    4    0    0  0.13029850592E+01  0.10324724648E+00  0.17777725040E+02  0.17825710018E+02  0.00000000000E+00 0.  1.
         -5    1    3    3    0  504  0.48973348709E+02  0.30291347720E+02 -0.25564370884E+03  0.26209111107E+03  0.47000000000E+01 0.  1.
<mgrwt>
<rscale>  2 0.20303540E+03</rscale>
<asrwt>0</asrwt>
<pdfrwt beam="1">  1       21 0.19900402E-01 0.20395436E+03</pdfrwt>
<pdfrwt beam="2">  1       21 0.67353859E-01 0.20395436E+03</pdfrwt>
<totfact> 0.46720613E+04</totfact>
</mgrwt>
</event>
<event>
12    1  0.2791583E-001  0.1766889E+03  0.7546771E-02  0.1171216E+00
         21   -1    0    0  502  503  0.00000000000E+00  0.00000000000E+00  0.27771328357E+03  0.27771328357E+03  0.00000000000E+00 0. -1.
         21   -1    0    0  503  504 -0.00000000000E+00 -0.00000000000E+00 -0.11386133161E+03  0.11386133161E+03  0.00000000000E+00 0. -1.
         -6    2    1    2    0  504 -0.19057688729E+02 -0.28128210049E+02  0.56612980315E+02  0.18488848685E+03  0.17269722444E+03 0.  0.
        -24    2    3    3    0    0  0.96432092740E+01  0.19251782526E+02 -0.25024383027E+02  0.86119289544E+02  0.79540490759E+02 0.  0.
          6    2    1    2  502    0  0.19057688729E+02  0.28128210049E+02  0.10723897165E+03  0.20668612833E+03  0.17339136917E+03 0.  0.
         24    2    5    5    0    0  0.76954798231E+01  0.22346375620E+02 -0.13234852387E+02  0.85448503485E+02  0.81041375341E+02 0.  0.
          4    1    6    6  501    0  0.17377819086E+02  0.46654978366E+02 -0.26185973287E+02  0.56252829257E+02  0.00000000000E+00 0. -1.
         -3    1    6    6    0  501 -0.96823392626E+01 -0.24308602746E+02  0.12951120900E+02  0.29195674228E+02  0.00000000000E+00 0.  1.
          5    1    5    5  502    0  0.11362208905E+02  0.57818344292E+01  0.12047382403E+03  0.12123762484E+03  0.47000000000E+01 0. -1.
         13    1    4    4    0    0  0.29131608047E+02 -0.21135780555E+02 -0.19506439440E+02  0.40937427700E+02  0.00000000000E+00 0. -1.
        -14    1    4    4    0    0 -0.19488398773E+02  0.40387563081E+02 -0.55179435870E+01  0.45181861845E+02  0.00000000000E+00 0.  1.
         -5    1    3    3    0  504 -0.28700898003E+02 -0.47379992575E+02  0.81637363342E+02  0.98769197304E+02  0.47000000000E+01 0.  1.
<mgrwt>
<rscale>  2 0.17651834E+03</rscale>
<asrwt>0</asrwt>
<pdfrwt beam="1">  1       21 0.42725120E-01 0.17668888E+03</pdfrwt>
<pdfrwt beam="2">  1       21 0.17517128E-01 0.17668888E+03</pdfrwt>
<totfact> 0.15635347E+05</totfact>
</mgrwt>
</event>
<event>
12    1  0.2791583E-001  0.2058488E+03  0.7546771E-02  0.1145331E+00
         21   -1    0    0  502  503  0.00000000000E+00  0.00000000000E+00  0.68343252986E+03  0.68343252986E+03  0.00000000000E+00 0. -1.
         21   -1    0    0  503  504 -0.00000000000E+00 -0.00000000000E+00 -0.62194055849E+02  0.62194055849E+02  0.00000000000E+00 0. -1.
         -6    2    1    2    0  504  0.46742985769E+02  0.98647636295E+02  0.26909753191E+03  0.33880258340E+03  0.17452061762E+03 0.  0.
        -24    2    3    3    0    0  0.15807777438E+02  0.10991445148E+03  0.10845263740E+03  0.17475137076E+03  0.80280723412E+02 0.  0.
          6    2    1    2  502    0 -0.46742985769E+02 -0.98647636295E+02  0.35214094210E+03  0.40682400230E+03  0.17200657802E+03 0.  0.
         24    2    5    5    0    0  0.20362911277E+02 -0.10691832095E+03  0.25575361943E+03  0.28899271777E+03  0.79124595181E+02 0.  0.
          4    1    6    6  501    0 -0.37577583398E+01 -0.30258108427E+02  0.16490193581E+03  0.16769711478E+03  0.00000000000E+00 0. -1.
         -3    1    6    6    0  501  0.24120669617E+02 -0.76660212527E+02  0.90851683619E+02  0.12129560299E+03  0.00000000000E+00 0.  1.
          5    1    5    5  502    0 -0.67105897046E+02  0.82706846590E+01  0.96387322671E+02  0.11783128453E+03  0.47000000000E+01 0. -1.
         11    1    4    4    0    0 -0.21559827827E+02  0.21122350438E+01  0.92318827442E+01  0.23548150072E+02  0.00000000000E+00 0. -1.
        -12    1    4    4    0    0  0.37367605266E+02  0.10780221643E+03  0.99220754655E+02  0.15120322068E+03  0.00000000000E+00 0.  1.
         -5    1    3    3    0  504  0.30935208331E+02 -0.11266815180E+02  0.16064489451E+03  0.16405121265E+03  0.47000000000E+01 0.  1.
<mgrwt>
<rscale>  2 0.20531491E+03</rscale>
<asrwt>0</asrwt>
<pdfrwt beam="1">  1       21 0.10514346E+00 0.20584875E+03</pdfrwt>
<pdfrwt beam="2">  1       21 0.95683168E-02 0.20584875E+03</pdfrwt>
<totfact> 0.63464616E+04</totfact>
</mgrwt>
</event>
<event>
12    1  0.2791583E-001  0.2056900E+03  0.7546771E-02  0.1145430E+00
         21   -1    0    0  502  503  0.00000000000E+00  0.00000000000E+00  0.20431957319E+03  0.20431957319E+03  0.00000000000E+00 0. -1.
         21   -1    0    0  503  504 -0.00000000000E+00 -0.00000000000E+00 -0.27267950265E+03  0.27267950265E+03  0.00000000000E+00 0. -1.
         -6    2    1    2    0  504  0.10741734101E+03  0.40701215367E+01 -0.15280488886E+03  0.25464954998E+03  0.17303759189E+03 0.  0.
        -24    2    3    3    0    0  0.94324675976E+02  0.50417630699E+02 -0.14695525061E+03  0.20590718903E+03  0.96761783944E+02 0.  0.
          6    2    1    2  502    0 -0.10741734101E+03 -0.40701215367E+01  0.84444959409E+02  0.22234952586E+03  0.17536621522E+03 0.  0.
         24    2    5    5    0    0 -0.60014610779E+02 -0.36468537749E+02  0.11562660963E+03  0.15684333137E+03  0.79363782593E+02 0.  0.
          4    1    6    6  501    0 -0.77207824526E+02 -0.42023585618E+02  0.95616705420E+02  0.12988296375E+03  0.00000000000E+00 0. -1.
         -3    1    6    6    0  501  0.17193213747E+02  0.55550478687E+01  0.20009904207E+02  0.26960367619E+02  0.00000000000E+00 0.  1.
          5    1    5    5  502    0 -0.47402730232E+02  0.32398416213E+02 -0.31181650217E+02  0.65506194492E+02  0.47000000000E+01 0. -1.
         11    1    4    4    0    0  0.32669215581E+02  0.14187314725E+02  0.68684052718E+01  0.36273027676E+02  0.00000000000E+00 0. -1.
        -12    1    4    4    0    0  0.61655460395E+02  0.36230315974E+02 -0.15382365588E+03  0.16963416136E+03  0.00000000000E+00 0.  1.
         -5    1    3    3    0  504  0.13092665035E+02 -0.46347509162E+02 -0.58496382578E+01  0.48742360950E+02  0.47000000000E+01 0.  1.
<mgrwt>
<rscale>  2 0.20519274E+03</rscale>
<asrwt>0</asrwt>
<pdfrwt beam="1">  1       21 0.31433780E-01 0.20568996E+03</pdfrwt>
<pdfrwt beam="2">  1       21 0.41950693E-01 0.20568996E+03</pdfrwt>
<totfact> 0.52868378E+04</totfact>
</mgrwt>
</event>
<event>
12    1  0.2791583E-001  0.1819241E+03  0.7546771E-02  0.1165983E+00
         21   -1    0    0  502  503  0.00000000000E+00  0.00000000000E+00  0.22803178654E+03  0.22803178654E+03  0.00000000000E+00 0. -1.
         21   -1    0    0  503  504 -0.00000000000E+00 -0.00000000000E+00 -0.14512316648E+03  0.14512316648E+03  0.00000000000E+00 0. -1.
         -6    2    1    2    0  504 -0.48670174315E+02 -0.25573126121E+02  0.37065460461E+02  0.18566160117E+03  0.17341744763E+03 0.  0.
        -24    2    3    3    0    0 -0.37464627008E+02 -0.71043139811E+02 -0.16613574549E+02  0.11427101891E+03  0.79568391412E+02 0.  0.
          6    2    1    2  502    0  0.48670174315E+02  0.25573126121E+02  0.45843159594E+02  0.18749335185E+03  0.17328990467E+03 0.  0.
         24    2    5    5    0    0  0.31342687074E+01 -0.29941757781E+01 -0.37106193427E+02  0.88537328265E+02  0.80269547008E+02 0.  0.
          2    1    6    6  501    0  0.51297844462E+01  0.34174099308E+02 -0.37923328582E+02  0.51306555163E+02  0.00000000000E+00 0. -1.
         -1    1    6    6    0  501 -0.19955157388E+01 -0.37168275086E+02  0.81713515537E+00  0.37230773102E+02  0.00000000000E+00 0.  1.
          5    1    5    5  502    0  0.45535905607E+02  0.28567301899E+02  0.82949353020E+02  0.98956023585E+02  0.47000000000E+01 0. -1.
         13    1    4    4    0    0 -0.61988875708E+02 -0.54731689162E+02 -0.58041154921E+01  0.82896720483E+02  0.00000000000E+00 0. -1.
        -14    1    4    4    0    0  0.24524248700E+02 -0.16311450649E+02 -0.10809459057E+02  0.31374298425E+02  0.00000000000E+00 0.  1.
         -5    1    3    3    0  504 -0.11205547307E+02  0.45470013690E+02  0.53679035011E+02  0.71390582258E+02  0.47000000000E+01 0.  1.
<mgrwt>
<rscale>  2 0.18189371E+03</rscale>
<asrwt>0</asrwt>
<pdfrwt beam="1">  1       21 0.35081813E-01 0.18192411E+03</pdfrwt>
<pdfrwt beam="2">  1       21 0.22326641E-01 0.18192411E+03</pdfrwt>
<totfact> 0.14756572E+05</totfact>
</mgrwt>
</event>
<event>
12    1  0.2791583E-001  0.1927782E+03  0.7546771E-02  0.1156685E+00
         21   -1    0    0  502  503  0.00000000000E+00  0.00000000000E+00  0.30797053461E+03  0.30797053461E+03  0.00000000000E+00 0.  1.
         21   -1    0    0  503  504 -0.00000000000E+00 -0.00000000000E+00 -0.24683844459E+03  0.24683844459E+03  0.00000000000E+00 0.  1.
         -6    2    1    2    0  504 -0.37991653727E+02 -0.72169721118E+02 -0.16942039000E+03  0.25427964265E+03  0.17118128905E+03 0.  0.
        -24    2    3    3    0    0 -0.58082092909E+02  0.35649096747E+00 -0.14397821870E+03  0.17469904661E+03  0.80102264781E+02 0.  0.
          6    2    1    2  502    0  0.37991653727E+02  0.72169721118E+02  0.23055248002E+03  0.30052933655E+03  0.17467570434E+03 0.  0.
         24    2    5    5    0    0  0.40449553834E+02  0.27214960458E+01  0.39525734489E+02  0.97201018931E+02  0.79007477167E+02 0.  0.
          2    1    6    6  501    0  0.24069221229E+02  0.25233821336E+02 -0.13433002670E+02  0.37370024224E+02  0.00000000000E+00 0. -1.
         -1    1    6    6    0  501  0.16380332605E+02 -0.22512325290E+02  0.52958737158E+02  0.59830994707E+02  0.00000000000E+00 0.  1.
          5    1    5    5  502    0 -0.24579001072E+01  0.69448225072E+02  0.19102674553E+03  0.20332831762E+03  0.47000000000E+01 0. -1.
         13    1    4    4    0    0 -0.68275084872E+02  0.24412405096E+02 -0.11173220203E+03  0.13319736374E+03  0.00000000000E+00 0. -1.
        -14    1    4    4    0    0  0.10192991963E+02 -0.24055914128E+02 -0.32246016663E+02  0.41501682862E+02  0.00000000000E+00 0.  1.
         -5    1    3    3    0  504  0.20090439181E+02 -0.72526212086E+02 -0.25442171299E+02  0.79580596042E+02  0.47000000000E+01 0.  1.
<mgrwt>
<rscale>  2 0.19198317E+03</rscale>
<asrwt>0</asrwt>
<pdfrwt beam="1">  1       21 0.47380082E-01 0.19277820E+03</pdfrwt>
<pdfrwt beam="2">  1       21 0.37975145E-01 0.19277820E+03</pdfrwt>
<totfact> 0.28495374E+04</totfact>
</mgrwt>
</event>
<event>
12    1  0.2791583E-001  0.2734493E+03  0.7546771E-02  0.1099336E+00
         21   -1    0    0  502  503  0.00000000000E+00  0.00000000000E+00  0.13518413211E+03  0.13518413211E+03  0.00000000000E+00 0. -1.
         21   -1    0    0  503  504 -0.00000000000E+00 -0.00000000000E+00 -0.79401315844E+03  0.79401315844E+03  0.00000000000E+00 0.  1.
         -6    2    1    2    0  504  0.21131092134E+03 -0.85149668976E+01 -0.58537774134E+03  0.64605488659E+03  0.17319066457E+03 0.  0.
        -24    2    3    3    0    0  0.30847930485E+02 -0.60785854753E+01 -0.25235463995E+03  0.26724186796E+03  0.82138953436E+02 0.  0.
          6    2    1    2  502    0 -0.21131092134E+03  0.85149668976E+01 -0.73451285001E+02  0.28314240396E+03  0.17334854921E+03 0.  0.
         24    2    5    5    0    0 -0.11145080800E+03  0.61327336434E+02 -0.78662996689E+02  0.16995918722E+03  0.80721332217E+02 0.  0.
          2    1    6    6  501    0 -0.10078030469E+02  0.11575618707E+02 -0.51605532931E+02  0.53839508501E+02  0.00000000000E+00 0. -1.
         -1    1    6    6    0  501 -0.10137277753E+03  0.49751717727E+02 -0.27057463758E+02  0.11611967872E+03  0.00000000000E+00 0.  1.
          5    1    5    5  502    0 -0.99860113345E+02 -0.52812369537E+02  0.52117116876E+01  0.11318321674E+03  0.47000000000E+01 0. -1.
         11    1    4    4    0    0 -0.11439164339E+02  0.14628926142E+02 -0.11532631256E+02  0.21860044477E+02  0.00000000000E+00 0. -1.
        -12    1    4    4    0    0  0.42287094824E+02 -0.20707511617E+02 -0.24082200869E+03  0.24538182349E+03  0.00000000000E+00 0.  1.
         -5    1    3    3    0  504  0.18046299086E+03 -0.24363814223E+01 -0.33302310139E+03  0.37881301863E+03  0.47000000000E+01 0.  1.
<mgrwt>
<rscale>  2 0.27342430E+03</rscale>
<asrwt>0</asrwt>
<pdfrwt beam="1">  1       21 0.20797559E-01 0.27344932E+03</pdfrwt>
<pdfrwt beam="2">  1       21 0.12215587E+00 0.27344932E+03</pdfrwt>
<totfact> 0.10309864E+04</totfact>
</mgrwt>
</event>
<event>
12    1  0.2791583E-001  0.1759063E+03  0.7546771E-02  0.1171955E+00
         21   -1    0    0  502  503  0.00000000000E+00  0.00000000000E+00  0.27743770495E+03  0.27743770495E+03  0.00000000000E+00 0.  1.
         21   -1    0    0  503  504 -0.00000000000E+00 -0.00000000000E+00 -0.11642273691E+03  0.11642273691E+03  0.00000000000E+00 0.  1.
         -6    2    1    2    0  504  0.19511231619E+01 -0.31085247358E+02  0.38690078955E+02  0.17960267630E+03  0.17259808701E+03 0.  0.
        -24    2    3    3    0    0  0.16875793511E+02  0.16549772247E+02 -0.35509822632E+02  0.90050701041E+02  0.79306329423E+02 0.  0.
          6    2    1    2  502    0 -0.19511231619E+01  0.31085247358E+02  0.12232488908E+03  0.21425776555E+03  0.17312686714E+03 0.  0.
         24    2    5    5    0    0 -0.19788209779E+02  0.13980622560E+02 -0.53916163488E+01  0.84087394082E+02  0.80340458445E+02 0.  0.
          4    1    6    6  501    0 -0.37948526863E+02 -0.16134226352E+02 -0.20214690953E+02  0.45924260270E+02  0.00000000000E+00 0. -1.
         -3    1    6    6    0  501  0.18160317084E+02  0.30114848912E+02  0.14823074604E+02  0.38163133811E+02  0.00000000000E+00 0.  1.
          5    1    5    5  502    0  0.17837086617E+02  0.17104624798E+02  0.12771650543E+03  0.13017037147E+03  0.47000000000E+01 0. -1.
         13    1    4    4    0    0  0.70153616397E+01  0.40276726393E+02  0.59104567108E+01  0.41308152784E+02  0.00000000000E+00 0. -1.
        -14    1    4    4    0    0  0.98604318715E+01 -0.23726954146E+02 -0.41420279343E+02  0.48742548257E+02  0.00000000000E+00 0.  1.
         -5    1    3    3    0  504 -0.14924670349E+02 -0.47635019605E+02  0.74199901587E+02  0.89551975262E+02  0.47000000000E+01 0.  1.
<mgrwt>
<rscale>  2 0.17577601E+03</rscale>
<asrwt>0</asrwt>
<pdfrwt beam="1">  1       21 0.42682724E-01 0.17590626E+03</pdfrwt>
<pdfrwt beam="2">  1       21 0.17911190E-01 0.17590626E+03</pdfrwt>
<totfact> 0.15041740E+05</totfact>
</mgrwt>
</event>
<event>
12    1  0.2791583E-001  0.1949737E+03  0.7546771E-02  0.1154230E+00
         21   -1    0    0  502  503  0.00000000000E+00  0.00000000000E+00  0.94544065796E+02  0.94544065796E+02  0.00000000000E+00 0. -1.
         21   -1    0    0  503  504 -0.00000000000E+00 -0.00000000000E+00 -0.44937870476E+03  0.44937870476E+03  0.00000000000E+00 0. -1.
         -6    2    1    2    0  504  0.78260215710E+02  0.41438818868E+02 -0.87957551286E+02  0.21389551282E+03  0.17370354776E+03 0.  0.
        -24    2    3    3    0    0 -0.15514856035E+02  0.30057177335E+02 -0.29730822767E+01  0.86743022414E+02  0.79820849734E+02 0.  0.
          6    2    1    2  502    0 -0.78260215710E+02 -0.41438818868E+02 -0.26687708768E+03  0.33002725774E+03  0.17277955275E+03 0.  0.
         24    2    5    5    0    0 -0.94944766094E+02  0.44033228913E+00 -0.10712687711E+03  0.16397167276E+03  0.79973990568E+02 0.  0.
          2    1    6    6  501    0 -0.91144979925E+02  0.14121166732E+02 -0.11525100223E+03  0.14761303544E+03  0.00000000000E+00 0. -1.
         -1    1    6    6    0  501 -0.37997861694E+01 -0.13680834443E+02  0.81241251252E+01  0.16358637322E+02  0.00000000000E+00 0.  1.
          5    1    5    5  502    0  0.16684550384E+02 -0.41879151157E+02 -0.15975021058E+03  0.16605558498E+03  0.47000000000E+01 0. -1.
         13    1    4    4    0    0  0.61790552932E+01 -0.55156497583E+01  0.31558656605E+02  0.32627471911E+02  0.00000000000E+00 0. -1.
        -14    1    4    4    0    0 -0.21693911328E+02  0.35572827093E+02 -0.34531738882E+02  0.54115550504E+02  0.00000000000E+00 0.  1.
         -5    1    3    3    0  504  0.93775071745E+02  0.11381641533E+02 -0.84984469009E+02  0.12715249041E+03  0.47000000000E+01 0.  1.
<mgrwt>
<rscale>  2 0.19476773E+03</rscale>
<asrwt>0</asrwt>
<pdfrwt beam="1">  1       21 0.14545241E-01 0.19497374E+03</pdfrwt>
<pdfrwt beam="2">  1       21 0.69135186E-01 0.19497374E+03</pdfrwt>
<totfact> 0.78928957E+04</totfact>
</mgrwt>
</event>
<event>
12    1  0.2791583E-001  0.2770375E+03  0.7546771E-02  0.1097393E+00
         21   -1    0    0  502  503  0.00000000000E+00  0.00000000000E+00  0.15297453884E+03  0.15297453884E+03  0.00000000000E+00 0. -1.
         21   -1    0    0  503  504 -0.00000000000E+00 -0.00000000000E+00 -0.10428464278E+04  0.10428464278E+04  0.00000000000E+00 0.  1.
         -6    2    1    2    0  504  0.20122757375E+03 -0.77268391799E+02 -0.87623493734E+03  0.91898719742E+03  0.17403121215E+03 0.  0.
        -24    2    3    3    0    0  0.44929397369E+02 -0.60810583071E+02 -0.49407477751E+03  0.50574579440E+03  0.77151442129E+02 0.  0.
          6    2    1    2  502    0 -0.20122757375E+03  0.77268391799E+02 -0.13636951639E+02  0.27683376923E+03  0.17317051864E+03 0.  0.
         24    2    5    5    0    0 -0.18389453656E+03  0.21340355567E+02  0.29178537479E+02  0.20414514891E+03  0.80939751806E+02 0.  0.
          4    1    6    6  501    0 -0.17519337822E+03  0.87080737183E+01  0.49625350856E+01  0.17547984806E+03  0.00000000000E+00 0. -1.
         -3    1    6    6    0  501 -0.87011583409E+01  0.12632281849E+02  0.24216002393E+02  0.28665300855E+02  0.00000000000E+00 0.  1.
          5    1    5    5  502    0 -0.17333037190E+02  0.55928036232E+02 -0.42815489117E+02  0.72688620315E+02  0.47000000000E+01 0. -1.
         11    1    4    4    0    0  0.11503169873E+02 -0.17107849914E+02 -0.20806895864E+02  0.29290414154E+02  0.00000000000E+00 0. -1.
        -12    1    4    4    0    0  0.33426227496E+02 -0.43702733157E+02 -0.47326788165E+03  0.47645538025E+03  0.00000000000E+00 0.  1.
         -5    1    3    3    0  504  0.15629817638E+03 -0.16457808728E+02 -0.38216015983E+03  0.41324140302E+03  0.47000000000E+01 0.  1.
<mgrwt>
<rscale>  2 0.27690248E+03</rscale>
<asrwt>0</asrwt>
<pdfrwt beam="1">  1       21 0.23534544E-01 0.27703755E+03</pdfrwt>
<pdfrwt beam="2">  1       21 0.16043792E+00 0.27703755E+03</pdfrwt>
<totfact> 0.39848890E+03</totfact>
</mgrwt>
</event>
<event>
12    1  0.2791583E-001  0.2167001E+03  0.7546771E-02  0.1136579E+00
         21   -1    0    0  502  503  0.00000000000E+00  0.00000000000E+00  0.14298180599E+03  0.14298180599E+03  0.00000000000E+00 0. -1.
         21   -1    0    0  503  504 -0.00000000000E+00 -0.00000000000E+00 -0.41516654670E+03  0.41516654670E+03  0.00000000000E+00 0.  1.
         -6    2    1    2    0  504 -0.12116888473E+03 -0.40567314295E+02 -0.70262735875E+01  0.21570426981E+03  0.17364146359E+03 0.  0.
        -24    2    3    3    0    0 -0.55505908545E+02 -0.49473872626E+02  0.57759364301E+02  0.12291298736E+03  0.79011950617E+02 0.  0.
          6    2    1    2  502    0  0.12116888473E+03  0.40567314295E+02 -0.26515846712E+03  0.34244408287E+03  0.17501808934E+03 0.  0.
         24    2    5    5    0    0  0.11266733997E+03 -0.25140385364E+02 -0.22199010362E+03  0.26322681414E+03  0.81748278923E+02 0.  0.
          2    1    6    6  501    0  0.99410797941E+02  0.10735359883E+02 -0.13323117954E+03  0.16657821556E+03  0.00000000000E+00 0. -1.
         -1    1    6    6    0  501  0.13256542032E+02 -0.35875745247E+02 -0.88758924082E+02  0.96648598582E+02  0.00000000000E+00 0.  1.
          5    1    5    5  502    0  0.85015447529E+01  0.65707699659E+02 -0.43168363503E+02  0.79217268730E+02  0.47000000000E+01 0. -1.
         13    1    4    4    0    0 -0.58984800502E+02 -0.18924230597E+02  0.53843750141E+01  0.62179777164E+02  0.00000000000E+00 0. -1.
        -14    1    4    4    0    0  0.34788919568E+01 -0.30549642030E+02  0.52374989287E+02  0.60733210191E+02  0.00000000000E+00 0.  1.
         -5    1    3    3    0  504 -0.65662976181E+02  0.89065583314E+01 -0.64785637888E+02  0.92791282451E+02  0.47000000000E+01 0.  1.
<mgrwt>
<rscale>  2 0.21642200E+03</rscale>
<asrwt>0</asrwt>
<pdfrwt beam="1">  1       21 0.21997201E-01 0.21670011E+03</pdfrwt>
<pdfrwt beam="2">  1       21 0.63871775E-01 0.21670011E+03</pdfrwt>
<totfact> 0.43192339E+04</totfact>
</mgrwt>
</event>
<event>
12    1  0.2791583E-001  0.2196424E+03  0.7546771E-02  0.1134198E+00
         21   -1    0    0  502  503  0.00000000000E+00  0.00000000000E+00  0.62706650362E+03  0.62706650362E+03  0.00000000000E+00 0. -1.
         21   -1    0    0  503  504 -0.00000000000E+00 -0.00000000000E+00 -0.12827958910E+03  0.12827958910E+03  0.00000000000E+00 0. -1.
         -6    2    1    2    0  504 -0.53331009860E+00 -0.13437384940E+03  0.48845394584E+03  0.53546073033E+03  0.17341949342E+03 0.  0.
        -24    2    3    3    0    0 -0.18541073915E+02 -0.16275484132E+03  0.44155932592E+03  0.47757329096E+03  0.79175123184E+02 0.  0.
          6    2    1    2  502    0  0.53331009860E+00  0.13437384940E+03  0.10332968682E+02  0.21988536240E+03  0.17374172364E+03 0.  0.
         24    2    5    5    0    0 -0.47287692973E+02  0.27591962361E+02 -0.18289604040E+02  0.99342584084E+02  0.80851698207E+02 0.  0.
          2    1    6    6  501    0 -0.68634350476E+02  0.32120095156E+02 -0.12948018082E+02  0.76876691853E+02  0.00000000000E+00 0. -1.
         -1    1    6    6    0  501  0.21346657503E+02 -0.45281327952E+01 -0.53415859585E+01  0.22465892231E+02  0.00000000000E+00 0.  1.
          5    1    5    5  502    0  0.47821003071E+02  0.10678188704E+03  0.28622572722E+02  0.12054277831E+03  0.47000000000E+01 0. -1.
         13    1    4    4    0    0 -0.15539639190E+02 -0.37122211351E+02  0.39728001637E+02  0.56549563003E+02  0.00000000000E+00 0. -1.
        -14    1    4    4    0    0 -0.30014347253E+01 -0.12563262997E+03  0.40183132429E+03  0.42102372795E+03  0.00000000000E+00 0.  1.
         -5    1    3    3    0  504  0.18007763816E+02  0.28380991921E+02  0.46894619913E+02  0.57887439371E+02  0.47000000000E+01 0.  1.
<mgrwt>
<rscale>  2 0.21957871E+03</rscale>
<asrwt>0</asrwt>
<pdfrwt beam="1">  1       21 0.96471768E-01 0.21964244E+03</pdfrwt>
<pdfrwt beam="2">  1       21 0.19735322E-01 0.21964244E+03</pdfrwt>
<totfact> 0.20807881E+04</totfact>
</mgrwt>
</event>
<event>
12    1  0.2791583E-001  0.1946003E+03  0.7546771E-02  0.1154441E+00
         21   -1    0    0  502  503  0.00000000000E+00  0.00000000000E+00  0.85884275277E+03  0.85884275277E+03  0.00000000000E+00 0.  1.
         21   -1    0    0  503  504 -0.00000000000E+00 -0.00000000000E+00 -0.76568324508E+02  0.76568324508E+02  0.00000000000E+00 0.  1.
         -6    2    1    2    0  504  0.85271487320E+02 -0.25185618985E+02  0.86061024777E+02  0.21251247723E+03  0.17277011037E+03 0.  0.
        -24    2    3    3    0    0  0.95301420563E+02 -0.45333208519E+02  0.11628506520E+03  0.17453738612E+03  0.76181508310E+02 0.  0.
          6    2    1    2  502    0 -0.85271487320E+02  0.25185618985E+02  0.69621340348E+03  0.72289860005E+03  0.17310037785E+03 0.  0.
         24    2    5    5    0    0 -0.11694208426E+03 -0.12687579263E+02  0.46725797245E+03  0.48863361066E+03  0.81218020820E+02 0.  0.
          2    1    6    6  501    0 -0.24375905291E+02  0.50715868412E+01  0.21123479817E+02  0.32651296321E+02  0.00000000000E+00 0. -1.
         -1    1    6    6    0  501 -0.92566178972E+02 -0.17759166105E+02  0.44613449264E+03  0.45598231434E+03  0.00000000000E+00 0.  1.
          5    1    5    5  502    0  0.31670596942E+02  0.37873198248E+02  0.22895543103E+03  0.23426498939E+03  0.47000000000E+01 0. -1.
         13    1    4    4    0    0  0.36830895894E+02 -0.37265036998E+02  0.10066007110E+03  0.11347972413E+03  0.00000000000E+00 0. -1.
        -14    1    4    4    0    0  0.58470524668E+02 -0.80681715214E+01  0.15624994100E+02  0.61057661987E+02  0.00000000000E+00 0.  1.
         -5    1    3    3    0  504 -0.10029933243E+02  0.20147589535E+02 -0.30224040425E+02  0.37975091106E+02  0.47000000000E+01 0.  1.
<mgrwt>
<rscale>  2 0.19452684E+03</rscale>
<asrwt>0</asrwt>
<pdfrwt beam="1">  1       21 0.13212965E+00 0.19460032E+03</pdfrwt>
<pdfrwt beam="2">  1       21 0.11779743E-01 0.19460032E+03</pdfrwt>
<totfact> 0.25134805E+04</totfact>
</mgrwt>
</event>
<event>
12    1  0.2791583E-001  0.3212750E+03  0.7546771E-02  0.1075099E+00
         21   -1    0    0  502  503  0.00000000000E+00  0.00000000000E+00  0.11964441092E+03  0.11964441092E+03  0.00000000000E+00 0.  1.
         21   -1    0    0  503  504 -0.00000000000E+00 -0.00000000000E+00 -0.86197722322E+03  0.86197722322E+03  0.00000000000E+00 0.  1.
         -6    2    1    2    0  504  0.18779148702E+03  0.19441009567E+03 -0.37670859852E+03  0.49510298295E+03  0.17365675232E+03 0.  0.
        -24    2    3    3    0    0  0.15448327102E+03  0.18728435497E+03 -0.23350847812E+03  0.34783255850E+03  0.86722365941E+02 0.  0.
          6    2    1    2  502    0 -0.18779148702E+03 -0.19441009567E+03 -0.36562421378E+03  0.48651865119E+03  0.17308496283E+03 0.  0.
         24    2    5    5    0    0 -0.20017057413E+03 -0.17184063387E+03 -0.37204545502E+03  0.45957528943E+03  0.56516934240E+02 0.  0.
          2    1    6    6  501    0 -0.73256599156E+02 -0.32168473092E+02 -0.92650763333E+02  0.12241529286E+03  0.00000000000E+00 0. -1.
         -1    1    6    6    0  501 -0.12691397498E+03 -0.13967216078E+03 -0.27939469169E+03  0.33715999657E+03  0.00000000000E+00 0.  1.
          5    1    5    5  502    0  0.12379087111E+02 -0.22569461799E+02  0.64212412446E+01  0.26943361756E+02  0.47000000000E+01 0. -1.
         13    1    4    4    0    0  0.38442476075E+02  0.36218867021E+01 -0.21111668799E+02  0.44007324272E+02  0.00000000000E+00 0. -1.
        -14    1    4    4    0    0  0.11604079495E+03  0.18366246827E+03 -0.21239680932E+03  0.30382523423E+03  0.00000000000E+00 0.  1.
         -5    1    3    3    0  504  0.33308215997E+02  0.71257406925E+01 -0.14320012040E+03  0.14727042445E+03  0.47000000000E+01 0.  1.
<mgrwt>
<rscale>  2 0.32119775E+03</rscale>
<asrwt>0</asrwt>
<pdfrwt beam="1">  1       21 0.18406833E-01 0.32127495E+03</pdfrwt>
<pdfrwt beam="2">  1       21 0.13261188E+00 0.32127495E+03</pdfrwt>
<totfact> 0.10284679E+04</totfact>
</mgrwt>
</event>
<event>
12    1  0.2791583E-001  0.3682285E+03  0.7546771E-02  0.1055459E+00
         21   -1    0    0  502  503  0.00000000000E+00  0.00000000000E+00  0.27923286493E+03  0.27923286493E+03  0.00000000000E+00 0. -1.
         21   -1    0    0  503  504 -0.00000000000E+00 -0.00000000000E+00 -0.89403550746E+03  0.89403550746E+03  0.00000000000E+00 0.  1.
         -6    2    1    2    0  504 -0.26842197065E+03  0.18201111029E+03 -0.70428608697E+03  0.79432311812E+03  0.17248746357E+03 0.  0.
        -24    2    3    3    0    0 -0.91778694486E+02  0.13645943041E+02 -0.20438987433E+03  0.23802464611E+03  0.79189462066E+02 0.  0.
          6    2    1    2  502    0  0.26842197065E+03 -0.18201111029E+03  0.89483444437E+02  0.37894525427E+03  0.17439558570E+03 0.  0.
         24    2    5    5    0    0  0.24716719035E+03 -0.19162701700E+03  0.11600879119E+03  0.34330938235E+03  0.81183488130E+02 0.  0.
          4    1    6    6  501    0  0.25103405991E+03 -0.17606395562E+03  0.10610259398E+03  0.32446013030E+03  0.00000000000E+00 0. -1.
         -3    1    6    6    0  501 -0.38668695602E+01 -0.15563061382E+02  0.99061972045E+01  0.18849252050E+02  0.00000000000E+00 0.  1.
          5    1    5    5  502    0  0.21254780297E+02  0.96159067168E+01 -0.26525346750E+02  0.35635871923E+02  0.47000000000E+01 0. -1.
         13    1    4    4    0    0 -0.19585811234E+02  0.39857883487E+02 -0.62344241443E+02  0.76544492414E+02  0.00000000000E+00 0. -1.
        -14    1    4    4    0    0 -0.72192883252E+02 -0.26211940446E+02 -0.14204563289E+03  0.16148015370E+03  0.00000000000E+00 0.  1.
         -5    1    3    3    0  504 -0.17664327616E+03  0.16836516725E+03 -0.49989621264E+03  0.55629847201E+03  0.47000000000E+01 0.  1.
<mgrwt>
<rscale>  2 0.36800332E+03</rscale>
<asrwt>0</asrwt>
<pdfrwt beam="1">  1       21 0.42958903E-01 0.36822849E+03</pdfrwt>
<pdfrwt beam="2">  1       21 0.13754392E+00 0.36822849E+03</pdfrwt>
<totfact> 0.17307484E+03</totfact>
</mgrwt>
</event>
<event>
12    1  0.2791583E-001  0.1834099E+03  0.7546771E-02  0.1164891E+00
         21   -1    0    0  502  503  0.00000000000E+00  0.00000000000E+00  0.12754647390E+04  0.12754647390E+04  0.00000000000E+00 0.  1.
         21   -1    0    0  503  504 -0.00000000000E+00 -0.00000000000E+00 -0.16963693803E+03  0.16963693803E+03  0.00000000000E+00 0.  1.
         -6    2    1    2    0  504 -0.10102072185E+02 -0.56696224682E+02 -0.11192500898E+03  0.21361432916E+03  0.17259015102E+03 0.  0.
        -24    2    3    3    0    0 -0.50411153397E+02 -0.55173931688E+02 -0.17632890747E+02  0.11094869243E+03  0.80082747149E+02 0.  0.
          6    2    1    2  502    0  0.10102072185E+02  0.56696224682E+02  0.12177528099E+04  0.12314873479E+04  0.17413405205E+03 0.  0.
         24    2    5    5    0    0 -0.17543440353E+01  0.96825639857E+01  0.11121828121E+04  0.11152205283E+04  0.81666329322E+02 0.  0.
          2    1    6    6  501    0 -0.37427932426E+02  0.12957144960E+02  0.35737815071E+03  0.35956623915E+03  0.00000000000E+00 0. -1.
         -1    1    6    6    0  501  0.35673588391E+02 -0.32745809739E+01  0.75480466143E+03  0.75565428915E+03  0.00000000000E+00 0.  1.
          5    1    5    5  502    0  0.11856416220E+02  0.47013660696E+02  0.10556999780E+03  0.11626681957E+03  0.47000000000E+01 0. -1.
         13    1    4    4    0    0 -0.62118201333E+02 -0.10892170522E+02 -0.41500616231E+01  0.63202320582E+02  0.00000000000E+00 0. -1.
        -14    1    4    4    0    0  0.11707047936E+02 -0.44281761166E+02 -0.13482829124E+02  0.47746371847E+02  0.00000000000E+00 0.  1.
         -5    1    3    3    0  504  0.40309081212E+02 -0.15222929942E+01 -0.94292118231E+02  0.10266563673E+03  0.47000000000E+01 0.  1.
<mgrwt>
<rscale>  2 0.18304248E+03</rscale>
<asrwt>0</asrwt>
<pdfrwt beam="1">  1       21 0.19622534E+00 0.18340987E+03</pdfrwt>
<pdfrwt beam="2">  1       21 0.26097991E-01 0.18340987E+03</pdfrwt>
<totfact> 0.20006501E+03</totfact>
</mgrwt>
</event>
<event>
12    1  0.2791583E-001  0.1790904E+03  0.7546771E-02  0.1168948E+00
         21   -1    0    0  502  503  0.00000000000E+00  0.00000000000E+00  0.20795535159E+03  0.20795535159E+03  0.00000000000E+00 0.  1.
         21   -1    0    0  503  504 -0.00000000000E+00 -0.00000000000E+00 -0.34980516062E+03  0.34980516062E+03  0.00000000000E+00 0.  1.
         -6    2    1    2    0  504 -0.25043724266E+02 -0.28822179706E+02 -0.27984670965E+03  0.33167089314E+03  0.17387781424E+03 0.  0.
        -24    2    3    3    0    0 -0.15531463850E+02 -0.61883162548E+02 -0.84377100172E+02  0.13314137414E+03  0.80847871321E+02 0.  0.
          6    2    1    2  502    0  0.25043724266E+02  0.28822179706E+02  0.13799690063E+03  0.22608961908E+03  0.17497275532E+03 0.  0.
         24    2    5    5    0    0  0.41243956129E+02  0.36509448850E+02  0.82756833507E+01  0.95050595001E+02  0.77020288903E+02 0.  0.
          4    1    6    6  501    0  0.53904309356E+02  0.18799959375E+02 -0.18986489099E+02  0.60163110026E+02  0.00000000000E+00 0. -1.
         -3    1    6    6    0  501 -0.12660353226E+02  0.17709489474E+02  0.27262172450E+02  0.34887484976E+02  0.00000000000E+00 0.  1.
          5    1    5    5  502    0 -0.16200231864E+02 -0.76872691433E+01  0.12972121728E+03  0.13103902408E+03  0.47000000000E+01 0. -1.
         13    1    4    4    0    0 -0.26262936562E+02  0.11601012725E+02 -0.24591068636E+02  0.37802724634E+02  0.00000000000E+00 0. -1.
        -14    1    4    4    0    0  0.10731472712E+02 -0.73484175273E+02 -0.59786031536E+02  0.95338649502E+02  0.00000000000E+00 0.  1.
         -5    1    3    3    0  504 -0.95122604160E+01  0.33060982841E+02 -0.19546960948E+03  0.19852951900E+03  0.47000000000E+01 0.  1.
<mgrwt>
<rscale>  2 0.17882240E+03</rscale>
<asrwt>0</asrwt>
<pdfrwt beam="1">  1       21 0.31993131E-01 0.17909040E+03</pdfrwt>
<pdfrwt beam="2">  1       21 0.53816179E-01 0.17909040E+03</pdfrwt>
<totfact> 0.30911676E+04</totfact>
</mgrwt>
</event>
<event>
12    1  0.2791583E-001  0.2118075E+03  0.7546771E-02  0.1140593E+00
         21   -1    0    0  502  503  0.00000000000E+00  0.00000000000E+00  0.73072891129E+02  0.73072891129E+02  0.00000000000E+00 0. -1.
         21   -1    0    0  503  504 -0.00000000000E+00 -0.00000000000E+00 -0.61301271781E+03  0.61301271781E+03  0.00000000000E+00 0. -1.
         -6    2    1    2    0  504 -0.87138018183E+02 -0.92660089455E+02 -0.30154769061E+03  0.36719183684E+03  0.16649296963E+03 0.  0.
        -24    2    3    3    0    0 -0.12279715199E+03 -0.84138647334E+02 -0.21483267685E+03  0.27292746174E+03  0.78599413605E+02 0.  0.
          6    2    1    2  502    0  0.87138018183E+02  0.92660089455E+02 -0.23839213607E+03  0.31889377211E+03  0.16936204107E+03 0.  0.
         24    2    5    5    0    0  0.84344377282E+02  0.44322921004E+00 -0.16229929188E+03  0.19921100526E+03  0.78929044342E+02 0.  0.
          4    1    6    6  501    0  0.52988234700E+02  0.38994724507E+02 -0.94798698102E+02  0.11539122461E+03  0.00000000000E+00 0. -1.
         -3    1    6    6    0  501  0.31356142582E+02 -0.38551495297E+02 -0.67500593773E+02  0.83819780643E+02  0.00000000000E+00 0.  1.
          5    1    5    5  502    0  0.27936409011E+01  0.92216860245E+02 -0.76092844199E+02  0.11968276685E+03  0.47000000000E+01 0. -1.
         11    1    4    4    0    0 -0.20145246557E+02 -0.76957052641E+01 -0.95614668482E+02  0.98016425498E+02  0.00000000000E+00 0. -1.
        -12    1    4    4    0    0 -0.10265190543E+03 -0.76442942070E+02 -0.11921800837E+03  0.17491103625E+03  0.00000000000E+00 0.  1.
         -5    1    3    3    0  504  0.35659133809E+02 -0.85214421208E+01 -0.86715013761E+02  0.94264375091E+02  0.47000000000E+01 0.  1.
<mgrwt>
<rscale>  2 0.21123344E+03</rscale>
<asrwt>0</asrwt>
<pdfrwt beam="1">  1       21 0.11241983E-01 0.21180752E+03</pdfrwt>
<pdfrwt beam="2">  1       21 0.94309654E-01 0.21180752E+03</pdfrwt>
<totfact> 0.61558533E+04</totfact>
</mgrwt>
</event>
<event>
12    1  0.2791583E-001  0.2837630E+03  0.7546771E-02  0.1093680E+00
         21   -1    0    0  502  503  0.00000000000E+00  0.00000000000E+00  0.41270117684E+03  0.41270117684E+03  0.00000000000E+00 0.  1.
         21   -1    0    0  503  504 -0.00000000000E+00 -0.00000000000E+00 -0.28593870623E+03  0.28593870623E+03  0.00000000000E+00 0. -1.
         -6    2    1    2    0  504  0.13656552154E+03 -0.17865280666E+03  0.26040350517E+03  0.38498187658E+03  0.17272548390E+03 0.  0.
        -24    2    3    3    0    0  0.27628655500E+02 -0.19714511445E+02  0.48077126754E+02  0.98218553541E+02  0.78635040385E+02 0.  0.
          6    2    1    2  502    0 -0.13656552154E+03  0.17865280666E+03 -0.13364103455E+03  0.31365800649E+03  0.17307354483E+03 0.  0.
         24    2    5    5    0    0 -0.59277204132E+02  0.14579621172E+02 -0.33433594670E+02  0.10639702316E+03  0.80474648195E+02 0.  0.
          4    1    6    6  501    0 -0.79102184201E+02  0.17370240569E+02 -0.26724711605E+02  0.85282419133E+02  0.00000000000E+00 0. -1.
         -3    1    6    6    0  501  0.19824980069E+02 -0.27906193967E+01 -0.67088830649E+01  0.21114604030E+02  0.00000000000E+00 0.  1.
          5    1    5    5  502    0 -0.77288317405E+02  0.16407318549E+03 -0.10020743988E+03  0.20726098333E+03  0.47000000000E+01 0. -1.
         11    1    4    4    0    0  0.46125693923E+02 -0.20880066651E+02  0.58166838244E+02  0.77116391867E+02  0.00000000000E+00 0. -1.
        -12    1    4    4    0    0 -0.18497038423E+02  0.11655552058E+01 -0.10089711490E+02  0.21102161674E+02  0.00000000000E+00 0.  1.
         -5    1    3    3    0  504  0.10893686604E+03 -0.15893829521E+03  0.21232637842E+03  0.28676332304E+03  0.47000000000E+01 0.  1.
<mgrwt>
<rscale>  2 0.28370991E+03</rscale>
<asrwt>0</asrwt>
<pdfrwt beam="1">  1       21 0.63492488E-01 0.28376296E+03</pdfrwt>
<pdfrwt beam="2">  1       21 0.43990570E-01 0.28376296E+03</pdfrwt>
<totfact> 0.10805996E+04</totfact>
</mgrwt>
</event>
<event>
12    1  0.2791583E-001  0.1916109E+03  0.7546771E-02  0.1157171E+00
         21   -1    0    0  502  503  0.00000000000E+00  0.00000000000E+00  0.27302000592E+03  0.27302000592E+03  0.00000000000E+00 0.  1.
         21   -1    0    0  503  504 -0.00000000000E+00 -0.00000000000E+00 -0.17327371867E+03  0.17327371867E+03  0.00000000000E+00 0. -1.
         -6    2    1    2    0  504  0.52926806104E+02 -0.61047720162E+02 -0.56304524416E+02  0.19971212195E+03  0.17374308977E+03 0.  0.
        -24    2    3    3    0    0  0.71591557145E+02 -0.11189510470E+02 -0.86085195549E+02  0.13853048763E+03  0.80805191109E+02 0.  0.
          6    2    1    2  502    0 -0.52926806104E+02  0.61047720162E+02  0.15605081167E+03  0.24658160265E+03  0.17298138628E+03 0.  0.
         24    2    5    5    0    0 -0.95106082095E+02  0.76905591547E+02  0.12080993413E+03  0.18918323283E+03  0.78965932760E+02 0.  0.
          4    1    6    6  501    0 -0.62723512991E+02  0.81546533101E+01  0.27845312056E+02  0.69109325391E+02  0.00000000000E+00 0. -1.
         -3    1    6    6    0  501 -0.32382569104E+02  0.68750938237E+02  0.92964622070E+02  0.12007390744E+03  0.00000000000E+00 0.  1.
          5    1    5    5  502    0  0.42179275991E+02 -0.15857871385E+02  0.35240877541E+02  0.57398369819E+02  0.47000000000E+01 0. -1.
         13    1    4    4    0    0 -0.10753065532E+02 -0.11842062801E+02  0.39912209210E+01  0.16486137030E+02  0.00000000000E+00 0. -1.
        -14    1    4    4    0    0  0.82344622677E+02  0.65255233117E+00 -0.90076416470E+02  0.12204435060E+03  0.00000000000E+00 0.  1.
         -5    1    3    3    0  504 -0.18664751041E+02 -0.49858209692E+02  0.29780671133E+02  0.61181634321E+02  0.47000000000E+01 0.  1.
<mgrwt>
<rscale>  2 0.19143805E+03</rscale>
<asrwt>0</asrwt>
<pdfrwt beam="1">  1       21 0.42003078E-01 0.19161089E+03</pdfrwt>
<pdfrwt beam="2">  1       21 0.26657495E-01 0.19161089E+03</pdfrwt>
<totfact> 0.73106017E+04</totfact>
</mgrwt>
</event>
<event>
12    1  0.2791583E-001  0.1809984E+03  0.7546771E-02  0.1167887E+00
         21   -1    0    0  502  503  0.00000000000E+00  0.00000000000E+00  0.23889304404E+03  0.23889304404E+03  0.00000000000E+00 0. -1.
         21   -1    0    0  503  504 -0.00000000000E+00 -0.00000000000E+00 -0.14377789831E+03  0.14377789831E+03  0.00000000000E+00 0. -1.
         -6    2    1    2    0  504  0.52022181414E+02 -0.75187005619E+01 -0.20726354775E+01  0.18101027937E+03  0.17319811547E+03 0.  0.
        -24    2    3    3    0    0  0.60572389984E+02  0.24722225802E+02 -0.56237189530E+02  0.11722570196E+03  0.79366496939E+02 0.  0.
          6    2    1    2  502    0 -0.52022181414E+02  0.75187005619E+01  0.97187781210E+02  0.20166066299E+03  0.16869712494E+03 0.  0.
         24    2    5    5    0    0 -0.62806763698E+02 -0.27710648918E+02  0.80704688103E+01  0.10511326712E+03  0.79190257150E+02 0.  0.
          4    1    6    6  501    0  0.36597440940E+01  0.16850371167E+02 -0.13879967445E+02  0.22135542269E+02  0.00000000000E+00 0. -1.
         -3    1    6    6    0  501 -0.66466507792E+02 -0.44561020085E+02  0.21950436255E+02  0.82977724848E+02  0.00000000000E+00 0.  1.
          5    1    5    5  502    0  0.10784582284E+02  0.35229349480E+02  0.89117312400E+02  0.96547395869E+02  0.47000000000E+01 0. -1.
         13    1    4    4    0    0  0.45564345002E+02  0.34897051731E+02  0.77683643487E+00  0.57397885238E+02  0.00000000000E+00 0. -1.
        -14    1    4    4    0    0  0.15008044982E+02 -0.10174825928E+02 -0.57014025965E+02  0.59827816721E+02  0.00000000000E+00 0.  1.
         -5    1    3    3    0  504 -0.85502085701E+01 -0.32240926364E+02  0.54164554052E+02  0.63784577408E+02  0.47000000000E+01 0.  1.
<mgrwt>
<rscale>  2 0.17991315E+03</rscale>
<asrwt>0</asrwt>
<pdfrwt beam="1">  1       21 0.36752776E-01 0.18099841E+03</pdfrwt>
<pdfrwt beam="2">  1       21 0.22119677E-01 0.18099841E+03</pdfrwt>
<totfact> 0.13694985E+05</totfact>
</mgrwt>
</event>
<event>
12    1  0.2791583E-001  0.1777843E+03  0.7546771E-02  0.1170022E+00
         21   -1    0    0  502  503  0.00000000000E+00  0.00000000000E+00  0.11779006034E+04  0.11779006034E+04  0.00000000000E+00 0. -1.
         21   -1    0    0  503  504 -0.00000000000E+00 -0.00000000000E+00 -0.85055577809E+02  0.85055577809E+02  0.00000000000E+00 0. -1.
         -6    2    1    2    0  504 -0.34204844311E+02 -0.19143118117E+02  0.23921163254E+02  0.17938636225E+03  0.17340938430E+03 0.  0.
        -24    2    3    3    0    0 -0.54492333244E+02  0.15593020461E+02 -0.36674297925E+02  0.10650233488E+03  0.82372243725E+02 0.  0.
          6    2    1    2  502    0  0.34204844311E+02  0.19143118117E+02  0.10689238624E+04  0.10835698190E+04  0.17317303123E+03 0.  0.
         24    2    5    5    0    0  0.70897021310E+02 -0.16407523029E+02  0.91010388174E+03  0.91666853024E+03  0.81832293999E+02 0.  0.
          2    1    6    6  501    0  0.43987194030E+02 -0.38319125909E+02  0.77452712010E+03  0.77672098492E+03  0.00000000000E+00 0. -1.
         -1    1    6    6    0  501  0.26909827280E+02  0.21911602880E+02  0.13557676164E+03  0.13994754532E+03  0.00000000000E+00 0.  1.
          5    1    5    5  502    0 -0.36692176999E+02  0.35550641146E+02  0.15881998063E+03  0.16690128875E+03  0.47000000000E+01 0. -1.
         13    1    4    4    0    0 -0.27620726234E+02 -0.15157813832E+02  0.19499902171E+02  0.37052800468E+02  0.00000000000E+00 0. -1.
        -14    1    4    4    0    0 -0.26871607010E+02  0.30750834293E+02 -0.56174200096E+02  0.69449534408E+02  0.00000000000E+00 0.  1.
         -5    1    3    3    0  504  0.20287488933E+02 -0.34736138578E+02  0.60595461179E+02  0.72884027373E+02  0.47000000000E+01 0.  1.
<mgrwt>
<rscale>  2 0.17772660E+03</rscale>
<asrwt>0</asrwt>
<pdfrwt beam="1">  1       21 0.18121547E+00 0.17778427E+03</pdfrwt>
<pdfrwt beam="2">  1       21 0.13085474E-01 0.17778427E+03</pdfrwt>
<totfact> 0.90810788E+03</totfact>
</mgrwt>
</event>
<event>
12    1  0.2791583E-001  0.2023077E+03  0.7546771E-02  0.1147827E+00
         21   -1    0    0  502  503  0.00000000000E+00  0.00000000000E+00  0.67203551191E+02  0.67203551191E+02  0.00000000000E+00 0. -1.
         21   -1    0    0  503  504 -0.00000000000E+00 -0.00000000000E+00 -0.61908546280E+03  0.61908546280E+03  0.00000000000E+00 0.  1.
         -6    2    1    2    0  504  0.13722598350E+02 -0.10394065686E+03 -0.32040153077E+03  0.37892683176E+03  0.17302148149E+03 0.  0.
        -24    2    3    3    0    0  0.70041204775E+02 -0.43118597901E+02 -0.15445636543E+03  0.19337092056E+03  0.82283414138E+02 0.  0.
          6    2    1    2  502    0 -0.13722598350E+02  0.10394065686E+03 -0.23148038084E+03  0.30736218222E+03  0.17290568092E+03 0.  0.
         24    2    5    5    0    0  0.83594361324E+01 -0.35686255686E+01 -0.51623005115E+02  0.96609655175E+02  0.81153407538E+02 0.  0.
          2    1    6    6  501    0  0.12636153423E+01 -0.26050963948E+02  0.12036417913E+02  0.28724985684E+02  0.00000000000E+00 0. -1.
         -1    1    6    6    0  501  0.70958207901E+01  0.22482338380E+02 -0.63659423028E+02  0.67884669491E+02  0.00000000000E+00 0.  1.
          5    1    5    5  502    0 -0.22082034482E+02  0.10750928243E+03 -0.17985737572E+03  0.21075252705E+03  0.47000000000E+01 0. -1.
         13    1    4    4    0    0  0.23700627209E+02  0.23296100776E+02 -0.29333505516E+02  0.44326996146E+02  0.00000000000E+00 0. -1.
        -14    1    4    4    0    0  0.46340577566E+02 -0.66414698676E+02 -0.12512285992E+03  0.14904392441E+03  0.00000000000E+00 0.  1.
         -5    1    3    3    0  504 -0.56318606425E+02 -0.60822058962E+02 -0.16594516534E+03  0.18555591121E+03  0.47000000000E+01 0.  1.
<mgrwt>
<rscale>  2 0.20228293E+03</rscale>
<asrwt>0</asrwt>
<pdfrwt beam="1">  1       21 0.10339008E-01 0.20230769E+03</pdfrwt>
<pdfrwt beam="2">  1       21 0.95243920E-01 0.20230769E+03</pdfrwt>
<totfact> 0.70120899E+04</totfact>
</mgrwt>
</event>
<event>
12    1  0.2791583E-001  0.1805519E+03  0.7546771E-02  0.1167500E+00
         21   -1    0    0  502  503  0.00000000000E+00  0.00000000000E+00  0.88959862998E+02  0.88959862998E+02  0.00000000000E+00 0. -1.
         21   -1    0    0  503  504 -0.00000000000E+00 -0.00000000000E+00 -0.48654294547E+03  0.48654294547E+03  0.00000000000E+00 0. -1.
         -6    2    1    2    0  504 -0.26274734714E+02  0.41784767661E+02 -0.34250519019E+03  0.38673689345E+03  0.17268263073E+03 0.  0.
        -24    2    3    3    0    0  0.51325360412E+02  0.20169260617E+02 -0.20540115264E+03  0.22765008689E+03  0.81202443692E+02 0.  0.
          6    2    1    2  502    0  0.26274734714E+02 -0.41784767661E+02 -0.55077892282E+02  0.18876591502E+03  0.17367402788E+03 0.  0.
         24    2    5    5    0    0  0.44062409889E+01 -0.92704859070E+02 -0.52343987745E+02  0.13308242589E+03  0.79733513492E+02 0.  0.
          2    1    6    6  501    0  0.16415313143E+02 -0.27498518253E+02 -0.58295236310E+02  0.66512897909E+02  0.00000000000E+00 0. -1.
         -1    1    6    6    0  501 -0.12009072154E+02 -0.65206340816E+02  0.59512485653E+01  0.66569527985E+02  0.00000000000E+00 0.  1.
          5    1    5    5  502    0  0.21868493725E+02  0.50920091409E+02 -0.27339045369E+01  0.55683489123E+02  0.47000000000E+01 0. -1.
         13    1    4    4    0    0 -0.14355417582E+02  0.71043085095E+01 -0.10959473354E+03  0.11075899436E+03  0.00000000000E+00 0. -1.
        -14    1    4    4    0    0  0.65680777994E+02  0.13064952108E+02 -0.95806419102E+02  0.11689109253E+03  0.00000000000E+00 0.  1.
         -5    1    3    3    0  504 -0.77600095126E+02  0.21615507043E+02 -0.13710403755E+03  0.15908680656E+03  0.47000000000E+01 0.  1.
<mgrwt>
<rscale>  2 0.18031309E+03</rscale>
<asrwt>0</asrwt>
<pdfrwt beam="1">  1       21 0.13686133E-01 0.18055192E+03</pdfrwt>
<pdfrwt beam="2">  1       21 0.74852760E-01 0.18055192E+03</pdfrwt>
<totfact> 0.74363809E+04</totfact>
</mgrwt>
</event>
<event>
12    1  0.2791583E-001  0.1966508E+03  0.7546771E-02  0.1154643E+00
         21   -1    0    0  502  503  0.00000000000E+00  0.00000000000E+00  0.43360863426E+02  0.43360863426E+02  0.00000000000E+00 0. -1.
         21   -1    0    0  503  504 -0.00000000000E+00 -0.00000000000E+00 -0.10456689920E+04  0.10456689920E+04  0.00000000000E+00 0. -1.
         -6    2    1    2    0  504 -0.30175035516E+02 -0.73771670703E+02 -0.72658945519E+03  0.75036728154E+03  0.16960550891E+03 0.  0.
        -24    2    3    3    0    0  0.12430120789E+02  0.17496521418E+02 -0.25600409800E+03  0.26910046300E+03  0.80101965182E+02 0.  0.
          6    2    1    2  502    0  0.30175035516E+02  0.73771670703E+02 -0.27571867336E+03  0.33866257386E+03  0.17977419149E+03 0.  0.
         24    2    5    5    0    0 -0.21492402931E+02  0.37132659179E+01 -0.35417339330E+02  0.83036821217E+02  0.71868032011E+02 0.  0.
          4    1    6    6  501    0 -0.11404891299E+02  0.21298989158E+02  0.15177011732E+02  0.28531739691E+02  0.00000000000E+00 0. -1.
         -3    1    6    6    0  501 -0.10087511632E+02 -0.17585723240E+02 -0.50594351062E+02  0.54505081526E+02  0.00000000000E+00 0.  1.
          5    1    5    5  502    0  0.51667438447E+02  0.70058404785E+02 -0.24030133403E+03  0.25562575264E+03  0.47000000000E+01 0. -1.
         13    1    4    4    0    0 -0.19215596577E+02 -0.68824828022E+01 -0.19572363468E+03  0.19678503219E+03  0.00000000000E+00 0. -1.
        -14    1    4    4    0    0  0.31645717366E+02  0.24379004220E+02 -0.60280463322E+02  0.72315430806E+02  0.00000000000E+00 0.  1.
         -5    1    3    3    0  504 -0.42605156305E+02 -0.91268192121E+02 -0.47058535718E+03  0.48126681855E+03  0.47000000000E+01 0.  1.
<mgrwt>
<rscale>  2 0.19429622E+03</rscale>
<asrwt>0</asrwt>
<pdfrwt beam="1">  1       21 0.66709022E-02 0.19665084E+03</pdfrwt>
<pdfrwt beam="2">  1       21 0.16087215E+00 0.19665084E+03</pdfrwt>
<totfact> 0.40668518E+04</totfact>
</mgrwt>
</event>
<event>
12    1  0.2791583E-001  0.2007540E+03  0.7546771E-02  0.1149392E+00
         21   -1    0    0  502  503  0.00000000000E+00  0.00000000000E+00  0.11571889184E+03  0.11571889184E+03  0.00000000000E+00 0. -1.
         21   -1    0    0  503  504 -0.00000000000E+00 -0.00000000000E+00 -0.70032407795E+03  0.70032407795E+03  0.00000000000E+00 0. -1.
         -6    2    1    2    0  504  0.89152110732E+02 -0.44579124272E+02 -0.58305657734E+03  0.61664992336E+03  0.17426060494E+03 0.  0.
        -24    2    3    3    0    0  0.68101013412E+02 -0.94362201362E+02 -0.35390941114E+03  0.38116740333E+03  0.80589980731E+02 0.  0.
          6    2    1    2  502    0 -0.89152110732E+02  0.44579124272E+02 -0.15486087702E+01  0.19939304644E+03  0.17268408036E+03 0.  0.
         24    2    5    5    0    0 -0.57448540955E+02 -0.35322229695E+02 -0.24776096969E+02  0.11022495287E+03  0.83592406865E+02 0.  0.
          4    1    6    6  501    0 -0.76586770808E+02 -0.41735106757E+02 -0.20062752847E+02  0.89497858358E+02  0.00000000000E+00 0. -1.
         -3    1    6    6    0  501  0.19138229852E+02  0.64128770615E+01 -0.47133441219E+01  0.20727094512E+02  0.00000000000E+00 0.  1.
          5    1    5    5  502    0 -0.31703569777E+02  0.79901353968E+02  0.23227488198E+02  0.89168093567E+02  0.47000000000E+01 0. -1.
         11    1    4    4    0    0  0.25445704701E+02 -0.22383968087E+01 -0.16256435547E+03  0.16455899847E+03  0.00000000000E+00 0. -1.
        -12    1    4    4    0    0  0.42655308711E+02 -0.92123804554E+02 -0.19134505566E+03  0.21660840486E+03  0.00000000000E+00 0.  1.
         -5    1    3    3    0  504  0.21051097321E+02  0.49783077090E+02 -0.22914716620E+03  0.23548252004E+03  0.47000000000E+01 0.  1.
<mgrwt>
<rscale>  2 0.20041136E+03</rscale>
<asrwt>0</asrwt>
<pdfrwt beam="1">  1       21 0.17802906E-01 0.20075397E+03</pdfrwt>
<pdfrwt beam="2">  1       21 0.10774217E+00 0.20075397E+03</pdfrwt>
<totfact> 0.19574381E+04</totfact>
</mgrwt>
</event>
<event>
12    1  0.2791583E-001  0.1898303E+03  0.7546771E-02  0.1160140E+00
         21   -1    0    0  502  503  0.00000000000E+00  0.00000000000E+00  0.37420580389E+03  0.37420580389E+03  0.00000000000E+00 0.  1.
         21   -1    0    0  503  504 -0.00000000000E+00 -0.00000000000E+00 -0.15925511218E+03  0.15925511218E+03  0.00000000000E+00 0.  1.
         -6    2    1    2    0  504 -0.18837175541E+01  0.79437492702E+02 -0.63482392731E+02  0.20016385543E+03  0.17239980045E+03 0.  0.
        -24    2    3    3    0    0  0.40329877080E+02  0.49989105614E+01  0.57047211065E+01  0.90018329852E+02  0.80120333089E+02 0.  0.
          6    2    1    2  502    0  0.18837175541E+01 -0.79437492702E+02  0.27843308444E+03  0.33329706064E+03  0.16506993816E+03 0.  0.
         24    2    5    5    0    0  0.59264277413E+02 -0.47668908663E+02  0.21600866710E+03  0.24262915308E+03  0.80153491700E+02 0.  0.
          4    1    6    6  501    0  0.34470475008E+02 -0.66918365326E+02  0.12034948510E+03  0.14195168132E+03  0.00000000000E+00 0. -1.
         -3    1    6    6    0  501  0.24793802405E+02  0.19249456663E+02  0.95659182001E+02  0.10067747176E+03  0.00000000000E+00 0.  1.
          5    1    5    5  502    0 -0.57380559859E+02 -0.31768584039E+02  0.62424417338E+02  0.90667907562E+02  0.47000000000E+01 0. -1.
         11    1    4    4    0    0  0.21658625252E+02  0.40716621474E+02 -0.92363217097E+01  0.47034550607E+02  0.00000000000E+00 0. -1.
        -12    1    4    4    0    0  0.18671251829E+02 -0.35717710913E+02  0.14941042816E+02  0.42983779244E+02  0.00000000000E+00 0.  1.
         -5    1    3    3    0  504 -0.42213594634E+02  0.74438582140E+02 -0.69187113837E+02  0.11014552557E+03  0.47000000000E+01 0.  1.
<mgrwt>
<rscale>  2 0.18815038E+03</rscale>
<asrwt>0</asrwt>
<pdfrwt beam="1">  1       21 0.57570124E-01 0.18983033E+03</pdfrwt>
<pdfrwt beam="2">  1       21 0.24500787E-01 0.18983033E+03</pdfrwt>
<totfact> 0.44622478E+04</totfact>
</mgrwt>
</event>
<event>
12    1  0.2791583E-001  0.2041428E+03  0.7546771E-02  0.1146541E+00
         21   -1    0    0  502  503  0.00000000000E+00  0.00000000000E+00  0.11002413425E+03  0.11002413425E+03  0.00000000000E+00 0.  1.
         21   -1    0    0  503  504 -0.00000000000E+00 -0.00000000000E+00 -0.40768094494E+03  0.40768094494E+03  0.00000000000E+00 0.  1.
         -6    2    1    2    0  504 -0.70793373625E+01  0.10259353217E+03 -0.21998653433E+03  0.29928584452E+03  0.17493539261E+03 0.  0.
        -24    2    3    3    0    0 -0.13378395674E+01  0.36613321411E+01 -0.16997990863E+03  0.18818545023E+03  0.80656054783E+02 0.  0.
          6    2    1    2  502    0  0.70793373625E+01 -0.10259353217E+03 -0.77670276370E+02  0.21841923466E+03  0.17634834952E+03 0.  0.
         24    2    5    5    0    0  0.74856349038E+02 -0.76198929030E+02 -0.53473871347E+02  0.14162109404E+03  0.76074500229E+02 0.  0.
          2    1    6    6  501    0  0.43051457225E+02 -0.50670239388E+01  0.57793232915E+01  0.43732176695E+02  0.00000000000E+00 0. -1.
         -1    1    6    6    0  501  0.31804891813E+02 -0.71131905091E+02 -0.59253194638E+02  0.97888917350E+02  0.00000000000E+00 0.  1.
          5    1    5    5  502    0 -0.67777011675E+02 -0.26394603137E+02 -0.24196405024E+02  0.76798140618E+02  0.47000000000E+01 0. -1.
         13    1    4    4    0    0 -0.34630841347E+02 -0.64696190057E+01 -0.38535908600E+02  0.52212712955E+02  0.00000000000E+00 0. -1.
        -14    1    4    4    0    0  0.33293001779E+02  0.10130951147E+02 -0.13144400003E+03  0.13597273728E+03  0.00000000000E+00 0.  1.
         -5    1    3    3    0  504 -0.57414977952E+01  0.98932200025E+02 -0.50006625696E+02  0.11110039429E+03  0.47000000000E+01 0.  1.
<mgrwt>
<rscale>  2 0.20383730E+03</rscale>
<asrwt>0</asrwt>
<pdfrwt beam="1">  1       21 0.16926790E-01 0.20414282E+03</pdfrwt>
<pdfrwt beam="2">  1       21 0.62720145E-01 0.20414282E+03</pdfrwt>
<totfact> 0.73677983E+04</totfact>
</mgrwt>
</event>
<event>
12    1  0.2791583E-001  0.4949650E+03  0.7546771E-02  0.1015241E+00
         21   -1    0    0  502  503  0.00000000000E+00  0.00000000000E+00  0.85916162868E+03  0.85916162868E+03  0.00000000000E+00 0. -1.
         21   -1    0    0  503  504 -0.00000000000E+00 -0.00000000000E+00 -0.65320127971E+03  0.65320127971E+03  0.00000000000E+00 0. -1.
         -6    2    1    2    0  504 -0.38210752450E+03 -0.25886904873E+03 -0.46566509774E+03  0.67805414068E+03  0.17289907393E+03 0.  0.
        -24    2    3    3    0    0 -0.19625954972E+03 -0.63774770875E+02 -0.24016388735E+03  0.32666527792E+03  0.80289966720E+02 0.  0.
          6    2    1    2  502    0  0.38210752450E+03  0.25886904873E+03  0.67162544671E+03  0.83430876771E+03  0.17880445894E+03 0.  0.
         24    2    5    5    0    0  0.39133846929E+03  0.22503679246E+03  0.60804852310E+03  0.76154925204E+03  0.80292598179E+02 0.  0.
          4    1    6    6  501    0  0.35527420919E+03  0.21926145840E+03  0.52452619503E+03  0.67039024466E+03  0.00000000000E+00 0. -1.
         -3    1    6    6    0  501  0.36064260097E+02  0.57753340610E+01  0.83522328074E+02  0.91159007381E+02  0.00000000000E+00 0.  1.
          5    1    5    5  502    0 -0.92309447842E+01  0.33832256272E+02  0.63576923609E+02  0.72759515678E+02  0.47000000000E+01 0. -1.
         13    1    4    4    0    0 -0.76195115126E+02 -0.33083854700E+02 -0.42352884041E+02  0.93241641971E+02  0.00000000000E+00 0. -1.
        -14    1    4    4    0    0 -0.12006443459E+03 -0.30690916175E+02 -0.19781100331E+03  0.23342363595E+03  0.00000000000E+00 0.  1.
         -5    1    3    3    0  504 -0.18584797478E+03 -0.19509427786E+03 -0.22550121039E+03  0.35138886276E+03  0.47000000000E+01 0.  1.
<mgrwt>
<rscale>  2 0.49443855E+03</rscale>
<asrwt>0</asrwt>
<pdfrwt beam="1">  1       21 0.13217871E+00 0.49496503E+03</pdfrwt>
<pdfrwt beam="2">  1       21 0.10049250E+00 0.49496503E+03</pdfrwt>
<totfact> 0.27136235E+02</totfact>
</mgrwt>
</event>
<event>
12    1  0.2791583E-001  0.2595790E+03  0.7546771E-02  0.1107461E+00
         21   -1    0    0  502  503  0.00000000000E+00  0.00000000000E+00  0.84217102335E+03  0.84217102335E+03  0.00000000000E+00 0.  1.
         21   -1    0    0  503  504 -0.00000000000E+00 -0.00000000000E+00 -0.15739441041E+03  0.15739441041E+03  0.00000000000E+00 0. -1.
         -6    2    1    2    0  504 -0.89730143483E+02  0.17183839937E+03 -0.84961043874E+01  0.25928958691E+03  0.17198538293E+03 0.  0.
        -24    2    3    3    0    0  0.19991274624E+02  0.61492077997E+02 -0.46337044102E+01  0.10355870248E+03  0.80758943309E+02 0.  0.
          6    2    1    2  502    0  0.89730143483E+02 -0.17183839937E+03  0.69327271733E+03  0.74027584686E+03  0.17263063083E+03 0.  0.
         24    2    5    5    0    0  0.17293800745E+02 -0.10278058102E+03  0.54733655575E+03  0.56325760124E+03  0.82576611207E+02 0.  0.
          4    1    6    6  501    0  0.50482175700E+02 -0.66669696887E+02  0.32637291030E+03  0.33691627316E+03  0.00000000000E+00 0. -1.
         -3    1    6    6    0  501 -0.33188374954E+02 -0.36110884132E+02  0.22096364545E+03  0.22634132808E+03  0.00000000000E+00 0.  1.
          5    1    5    5  502    0  0.72436342738E+02 -0.69057818353E+02  0.14593616158E+03  0.17701824562E+03  0.47000000000E+01 0. -1.
         13    1    4    4    0    0 -0.14587596992E+01  0.61886307829E+02 -0.31273208252E+02  0.69354571810E+02  0.00000000000E+00 0. -1.
        -14    1    4    4    0    0  0.21450034323E+02 -0.39422983225E+00  0.26639503842E+02  0.34204130665E+02  0.00000000000E+00 0.  1.
         -5    1    3    3    0  504 -0.10972141811E+03  0.11034632137E+03 -0.38623999771E+01  0.15573088443E+03  0.47000000000E+01 0.  1.
<mgrwt>
<rscale>  2 0.25947179E+03</rscale>
<asrwt>0</asrwt>
<pdfrwt beam="1">  1       21 0.12956477E+00 0.25957902E+03</pdfrwt>
<pdfrwt beam="2">  1       21 0.24214525E-01 0.25957902E+03</pdfrwt>
<totfact> 0.67006866E+03</totfact>
</mgrwt>
</event>
<event>
12    1  0.2791583E-001  0.1917469E+03  0.7546771E-02  0.1157673E+00
         21   -1    0    0  502  503  0.00000000000E+00  0.00000000000E+00  0.21735142461E+02  0.21735142461E+02  0.00000000000E+00 0.  1.
         21   -1    0    0  503  504 -0.00000000000E+00 -0.00000000000E+00 -0.20099726665E+04  0.20099726665E+04  0.00000000000E+00 0.  1.
         -6    2    1    2    0  504 -0.73784824365E+02  0.18983858677E+02 -0.14097720762E+04  0.14222907683E+04  0.17218924347E+03 0.  0.
        -24    2    3    3    0    0 -0.32779416178E+02 -0.46109096798E+02 -0.50774340462E+03  0.51697515996E+03  0.79116446770E+02 0.  0.
          6    2    1    2  502    0  0.73784824365E+02 -0.18983858677E+02 -0.57846544789E+03  0.60941704071E+03  0.17596098405E+03 0.  0.
         24    2    5    5    0    0 -0.25649515236E+01  0.30326737969E+02 -0.16622001642E+03  0.18724502720E+03  0.80655541297E+02 0.  0.
          2    1    6    6  501    0 -0.23351537995E+02  0.50515678255E+02 -0.91400933957E+02  0.10701055464E+03  0.00000000000E+00 0. -1.
         -1    1    6    6    0  501  0.20786586472E+02 -0.20188940286E+02 -0.74819082459E+02  0.80234472560E+02  0.00000000000E+00 0.  1.
          5    1    5    5  502    0  0.76349775888E+02 -0.49310596646E+02 -0.41224543148E+03  0.42217201351E+03  0.47000000000E+01 0. -1.
         13    1    4    4    0    0 -0.82553495315E+01  0.21013202194E+02 -0.73446643435E+02  0.76838238490E+02  0.00000000000E+00 0. -1.
        -14    1    4    4    0    0 -0.24524066646E+02 -0.67122298992E+02 -0.43429676118E+03  0.44013692147E+03  0.00000000000E+00 0.  1.
         -5    1    3    3    0  504 -0.41005408187E+02  0.65092955474E+02 -0.90202867154E+03  0.90531560830E+03  0.47000000000E+01 0.  1.
<mgrwt>
<rscale>  2 0.19087714E+03</rscale>
<asrwt>0</asrwt>
<pdfrwt beam="1">  1       21 0.33438679E-02 0.19174685E+03</pdfrwt>
<pdfrwt beam="2">  1       21 0.30922658E+00 0.19174685E+03</pdfrwt>
<totfact> 0.15977171E+04</totfact>
</mgrwt>
</event>
<event>
12    1  0.2791583E-001  0.2660785E+03  0.7546771E-02  0.1104086E+00
         21   -1    0    0  502  503  0.00000000000E+00  0.00000000000E+00  0.17372130837E+04  0.17372130837E+04  0.00000000000E+00 0. -1.
         21   -1    0    0  503  504 -0.00000000000E+00 -0.00000000000E+00 -0.44352482848E+02  0.44352482848E+02  0.00000000000E+00 0. -1.
         -6    2    1    2    0  504 -0.19680494467E+03 -0.38965232716E+02  0.56825726934E+03  0.62591405630E+03  0.16912009377E+03 0.  0.
        -24    2    3    3    0    0 -0.20731824871E+03 -0.55288439688E+02  0.55825820477E+03  0.60357467538E+03  0.81317266068E+02 0.  0.
          6    2    1    2  502    0  0.19680494467E+03  0.38965232716E+02  0.11246033315E+04  0.11556515102E+04  0.17477781399E+03 0.  0.
         24    2    5    5    0    0  0.85828141010E+02 -0.41519567861E+02  0.66615732206E+03  0.67712409446E+03  0.75107371494E+02 0.  0.
          4    1    6    6  501    0  0.84100079284E+02 -0.39365353895E+02  0.38813297879E+03  0.39908603539E+03  0.00000000000E+00 0. -1.
         -3    1    6    6    0  501  0.17280617256E+01 -0.21542139663E+01  0.27802434327E+03  0.27803805906E+03  0.00000000000E+00 0.  1.
          5    1    5    5  502    0  0.11097680366E+03  0.80484800577E+02  0.45844600942E+03  0.47852741576E+03  0.47000000000E+01 0. -1.
         13    1    4    4    0    0 -0.13395257744E+03  0.55612833701E+01  0.33370058776E+03  0.35962522596E+03  0.00000000000E+00 0. -1.
        -14    1    4    4    0    0 -0.73365671273E+02 -0.60849723059E+02  0.22455761701E+03  0.24394944943E+03  0.00000000000E+00 0.  1.
         -5    1    3    3    0  504  0.10513304039E+02  0.16323206972E+02  0.99990645678E+01  0.22339380920E+02  0.47000000000E+01 0.  1.
<mgrwt>
<rscale>  2 0.26515325E+03</rscale>
<asrwt>0</asrwt>
<pdfrwt beam="1">  1       21 0.26726350E+00 0.26607848E+03</pdfrwt>
<pdfrwt beam="2">  1       21 0.68234602E-02 0.26607848E+03</pdfrwt>
<totfact> 0.78136774E+03</totfact>
</mgrwt>
</event>
<event>
12    1  0.2791583E-001  0.1758148E+03  0.7546771E-02  0.1171922E+00
         21   -1    0    0  502  503  0.00000000000E+00  0.00000000000E+00  0.13480573032E+03  0.13480573032E+03  0.00000000000E+00 0.  1.
         21   -1    0    0  503  504 -0.00000000000E+00 -0.00000000000E+00 -0.23203482125E+03  0.23203482125E+03  0.00000000000E+00 0.  1.
         -6    2    1    2    0  504  0.25073880670E+02  0.14722879663E+02 -0.68651374508E+02  0.18874283367E+03  0.17339372354E+03 0.  0.
        -24    2    3    3    0    0 -0.26819764306E+02 -0.13370553610E+02  0.13569050695E+02  0.87429065097E+02  0.81004017342E+02 0.  0.
          6    2    1    2  502    0 -0.25073880670E+02 -0.14722879663E+02 -0.28577716415E+02  0.17809771790E+03  0.17336853396E+03 0.  0.
         24    2    5    5    0    0 -0.75869307814E+02 -0.30592856652E+02 -0.24495215631E+02  0.12451797918E+03  0.90623599602E+02 0.  0.
          2    1    6    6  501    0 -0.15364770692E+02  0.58026551873E+01  0.30753185862E+02  0.34864099390E+02  0.00000000000E+00 0. -1.
         -1    1    6    6    0  501 -0.60504537123E+02 -0.36395511839E+02 -0.55248401493E+02  0.89653879794E+02  0.00000000000E+00 0.  1.
          5    1    5    5  502    0  0.50795427144E+02  0.15869976989E+02 -0.40825007834E+01  0.53579738717E+02  0.47000000000E+01 0. -1.
         13    1    4    4    0    0 -0.30934333747E+02 -0.28793054671E+01  0.44634619424E+02  0.54382650317E+02  0.00000000000E+00 0. -1.
        -14    1    4    4    0    0  0.41145694410E+01 -0.10491248143E+02 -0.31065568730E+02  0.33046414779E+02  0.00000000000E+00 0.  1.
         -5    1    3    3    0  504  0.51893644977E+02  0.28093433273E+02 -0.82220425203E+02  0.10131376857E+03  0.47000000000E+01 0.  1.
<mgrwt>
<rscale>  2 0.17580860E+03</rscale>
<asrwt>0</asrwt>
<pdfrwt beam="1">  1       21 0.20739343E-01 0.17581481E+03</pdfrwt>
<pdfrwt beam="2">  1       21 0.35697665E-01 0.17581481E+03</pdfrwt>
<totfact> 0.16405218E+05</totfact>
</mgrwt>
</event>
<event>
12    1  0.2791583E-001  0.1899817E+03  0.7546771E-02  0.1158881E+00
         21   -1    0    0  502  503  0.00000000000E+00  0.00000000000E+00  0.13400165889E+04  0.13400165889E+04  0.00000000000E+00 0. -1.
         21   -1    0    0  503  504 -0.00000000000E+00 -0.00000000000E+00 -0.26716692332E+02  0.26716692332E+02  0.00000000000E+00 0. -1.
         -6    2    1    2    0  504  0.62502609416E+02  0.44506075756E+02  0.62936537540E+03  0.65690269278E+03  0.17185169499E+03 0.  0.
        -24    2    3    3    0    0  0.43867090909E+02  0.71095814635E+02  0.60438911758E+03  0.61566920859E+03  0.82361595647E+02 0.  0.
          6    2    1    2  502    0 -0.62502609416E+02 -0.44506075756E+02  0.68393452121E+03  0.70983058849E+03  0.17379777931E+03 0.  0.
         24    2    5    5    0    0 -0.55231325499E+02 -0.37842388973E+02  0.19918074923E+03  0.22495371160E+03  0.80303522843E+02 0.  0.
          2    1    6    6  501    0 -0.64791262977E+02 -0.53216732971E+02  0.14125530556E+03  0.16426499863E+03  0.00000000000E+00 0. -1.
         -1    1    6    6    0  501  0.95599374787E+01  0.15374343998E+02  0.57925443669E+02  0.60688712972E+02  0.00000000000E+00 0.  1.
          5    1    5    5  502    0 -0.72712839174E+01 -0.66636867822E+01  0.48475377198E+03  0.48487687689E+03  0.47000000000E+01 0. -1.
         13    1    4    4    0    0  0.28086363138E+02  0.84696730260E+02  0.38095767081E+03  0.39126861216E+03  0.00000000000E+00 0. -1.
        -14    1    4    4    0    0  0.15780727771E+02 -0.13600915625E+02  0.22343144677E+03  0.22440059644E+03  0.00000000000E+00 0.  1.
         -5    1    3    3    0  504  0.18635518507E+02 -0.26589738879E+02  0.24976257820E+02  0.41233484189E+02  0.47000000000E+01 0.  1.
<mgrwt>
<rscale>  2 0.18953543E+03</rscale>
<asrwt>0</asrwt>
<pdfrwt beam="1">  1       21 0.20615635E+00 0.18998167E+03</pdfrwt>
<pdfrwt beam="2">  1       21 0.41102614E-02 0.18998167E+03</pdfrwt>
<totfact> 0.46012375E+04</totfact>
</mgrwt>
</event>
<event>
12    1  0.2791583E-001  0.2048126E+03  0.7546771E-02  0.1145790E+00
         21   -1    0    0  502  503  0.00000000000E+00  0.00000000000E+00  0.82702539991E+03  0.82702539991E+03  0.00000000000E+00 0. -1.
         21   -1    0    0  503  504 -0.00000000000E+00 -0.00000000000E+00 -0.19641302416E+03  0.19641302416E+03  0.00000000000E+00 0. -1.
         -6    2    1    2    0  504  0.88867928802E+02 -0.65143493980E+02 -0.12555165848E+03  0.24002777225E+03  0.17236278290E+03 0.  0.
        -24    2    3    3    0    0  0.12234357883E+03 -0.20322311422E+02 -0.99633449406E+02  0.17819411546E+03  0.80283067478E+02 0.  0.
          6    2    1    2  502    0 -0.88867928802E+02  0.65143493980E+02  0.75616403423E+03  0.78341065181E+03  0.17264709420E+03 0.  0.
         24    2    5    5    0    0 -0.11472942823E+03  0.65629191988E+02  0.73094029454E+03  0.74697742386E+03  0.78940009077E+02 0.  0.
          4    1    6    6  501    0 -0.54318292277E+02  0.40277755161E+01  0.44450372050E+03  0.44782837940E+03  0.00000000000E+00 0. -1.
         -3    1    6    6    0  501 -0.60411135950E+02  0.61601416471E+02  0.28643657404E+03  0.29914904447E+03  0.00000000000E+00 0.  1.
          5    1    5    5  502    0  0.25861499425E+02 -0.48569800720E+00  0.25223739683E+02  0.36433227947E+02  0.47000000000E+01 0. -1.
         11    1    4    4    0    0  0.81778593914E+02 -0.43887174640E+02 -0.91967004349E+02  0.13065891630E+03  0.00000000000E+00 0. -1.
        -12    1    4    4    0    0  0.40564984914E+02  0.23564863218E+02 -0.76664450565E+01  0.47535199162E+02  0.00000000000E+00 0.  1.
         -5    1    3    3    0  504 -0.33475650026E+02 -0.44821182558E+02 -0.25918209072E+02  0.61833656790E+02  0.47000000000E+01 0.  1.
<mgrwt>
<rscale>  2 0.20475268E+03</rscale>
<asrwt>0</asrwt>
<pdfrwt beam="1">  1       21 0.12723467E+00 0.20481260E+03</pdfrwt>
<pdfrwt beam="2">  1       21 0.30217389E-01 0.20481260E+03</pdfrwt>
<totfact> 0.47470864E+03</totfact>
</mgrwt>
</event>
<event>
12    1  0.2791583E-001  0.2881305E+03  0.7546771E-02  0.1092766E+00
         21   -1    0    0  502  503  0.00000000000E+00  0.00000000000E+00  0.10622611810E+04  0.10622611810E+04  0.00000000000E+00 0. -1.
         21   -1    0    0  503  504 -0.00000000000E+00 -0.00000000000E+00 -0.98219624422E+02  0.98219624422E+02  0.00000000000E+00 0.  1.
         -6    2    1    2    0  504  0.71328212379E+02 -0.21829086476E+03  0.19465232794E+03  0.33890976875E+03  0.15566530461E+03 0.  0.
        -24    2    3    3    0    0  0.99527948131E+02 -0.20232191845E+03  0.19069041804E+03  0.30592463462E+03  0.79919180395E+02 0.  0.
          6    2    1    2  502    0 -0.71328212379E+02  0.21829086476E+03  0.76938922866E+03  0.82157103669E+03  0.17401312492E+03 0.  0.
         24    2    5    5    0    0 -0.45255397847E+02  0.44158066607E+02  0.20052908034E+03  0.22606622446E+03  0.83042398202E+02 0.  0.
          2    1    6    6  501    0 -0.38833624411E+02  0.47937686925E+02  0.20712324279E+03  0.21611596405E+03  0.00000000000E+00 0. -1.
         -1    1    6    6    0  501 -0.64217734355E+01 -0.37796203181E+01 -0.65941624516E+01  0.99502604108E+01  0.00000000000E+00 0.  1.
          5    1    5    5  502    0 -0.26072814533E+02  0.17413279816E+03  0.56886014832E+03  0.59550481224E+03  0.47000000000E+01 0. -1.
         13    1    4    4    0    0  0.59472502905E+02 -0.47123034840E+02  0.39320217908E+02  0.85461327807E+02  0.00000000000E+00 0. -1.
        -14    1    4    4    0    0  0.40055445227E+02 -0.15519888361E+03  0.15137020013E+03  0.22046330681E+03  0.00000000000E+00 0.  1.
         -5    1    3    3    0  504 -0.28199735752E+02 -0.15968946319E+02  0.39619099027E+01  0.32985134123E+02  0.47000000000E+01 0.  1.
<mgrwt>
<rscale>  2 0.28541863E+03</rscale>
<asrwt>0</asrwt>
<pdfrwt beam="1">  1       21 0.16342479E+00 0.28813050E+03</pdfrwt>
<pdfrwt beam="2">  1       21 0.15110712E-01 0.28813050E+03</pdfrwt>
<totfact> 0.86359417E+03</totfact>
</mgrwt>
</event>
<event>
12    1  0.2791583E-001  0.2028091E+03  0.7546771E-02  0.1149386E+00
         21   -1    0    0  502  503  0.00000000000E+00  0.00000000000E+00  0.41057366344E+03  0.41057366344E+03  0.00000000000E+00 0. -1.
         21   -1    0    0  503  504 -0.00000000000E+00 -0.00000000000E+00 -0.15224057678E+03  0.15224057678E+03  0.00000000000E+00 0. -1.
         -6    2    1    2    0  504 -0.16167257430E+02  0.10394278923E+03 -0.44381665358E+02  0.19844114774E+03  0.16230734194E+03 0.  0.
        -24    2    3    3    0    0 -0.30376081061E+02  0.47870696524E+02 -0.82206225611E+02  0.12916808221E+03  0.81928139520E+02 0.  0.
          6    2    1    2  502    0  0.16167257430E+02 -0.10394278923E+03  0.30271475202E+03  0.36437309248E+03  0.17339563371E+03 0.  0.
         24    2    5    5    0    0  0.24558838624E+02 -0.12987324597E+02  0.23595848616E+03  0.25113968657E+03  0.81381372734E+02 0.  0.
          4    1    6    6  501    0 -0.47039320346E+01 -0.43466905622E+02  0.12262949124E+03  0.13019021078E+03  0.00000000000E+00 0. -1.
         -3    1    6    6    0  501  0.29262770658E+02  0.30479581025E+02  0.11332899492E+03  0.12094947579E+03  0.00000000000E+00 0.  1.
          5    1    5    5  502    0 -0.83915811942E+01 -0.90955464637E+02  0.66756265863E+02  0.11323340591E+03  0.47000000000E+01 0. -1.
         11    1    4    4    0    0 -0.11003426839E+02  0.51356501096E+02 -0.89070295787E+01  0.53271951184E+02  0.00000000000E+00 0. -1.
        -12    1    4    4    0    0 -0.19372654222E+02 -0.34858045715E+01 -0.73299196033E+02  0.75896131022E+02  0.00000000000E+00 0.  1.
         -5    1    3    3    0  504  0.14208823632E+02  0.56072092710E+02  0.37824560254E+02  0.69273065532E+02  0.47000000000E+01 0.  1.
<mgrwt>
<rscale>  2 0.20041850E+03</rscale>
<asrwt>0</asrwt>
<pdfrwt beam="1">  1       21 0.63165179E-01 0.20280910E+03</pdfrwt>
<pdfrwt beam="2">  1       21 0.23421627E-01 0.20280910E+03</pdfrwt>
<totfact> 0.39561238E+04</totfact>
</mgrwt>
</event>
<event>
12    1  0.2791583E-001  0.1887099E+03  0.7546771E-02  0.1160095E+00
         21   -1    0    0  502  503  0.00000000000E+00  0.00000000000E+00  0.32500727220E+03  0.32500727220E+03  0.00000000000E+00 0. -1.
         21   -1    0    0  503  504 -0.00000000000E+00 -0.00000000000E+00 -0.12160520779E+03  0.12160520779E+03  0.00000000000E+00 0.  1.
         -6    2    1    2    0  504 -0.43956592612E+02  0.50541325025E+02  0.28588616410E+02  0.19086314078E+03  0.17642228304E+03 0.  0.
        -24    2    3    3    0    0 -0.84541976149E+02  0.71976167509E+02  0.23193572831E+01  0.13777086447E+03  0.81532308060E+02 0.  0.
          6    2    1    2  502    0  0.43956592612E+02 -0.50541325025E+02  0.17481344800E+03  0.25574933921E+03  0.17424515871E+03 0.  0.
         24    2    5    5    0    0  0.95604923451E+02 -0.52343533359E+02  0.13271262816E+03  0.18892593713E+03  0.78741483198E+02 0.  0.
          4    1    6    6  501    0  0.58687156103E+02 -0.98078013138E+01  0.11567824910E+03  0.13008394433E+03  0.00000000000E+00 0. -1.
         -3    1    6    6    0  501  0.36917767348E+02 -0.42535732045E+02  0.17034379053E+02  0.58841992797E+02  0.00000000000E+00 0.  1.
          5    1    5    5  502    0 -0.51648330839E+02  0.18022083343E+01  0.42100819845E+02  0.66823402076E+02  0.47000000000E+01 0. -1.
         13    1    4    4    0    0  0.10793789354E+02  0.17536899569E+02  0.17395466765E+02  0.26956464885E+02  0.00000000000E+00 0. -1.
        -14    1    4    4    0    0 -0.95335765503E+02  0.54439267939E+02 -0.15076109482E+02  0.11081439958E+03  0.00000000000E+00 0.  1.
         -5    1    3    3    0  504  0.40585383537E+02 -0.21434842484E+02  0.26269259127E+02  0.53092276314E+02  0.47000000000E+01 0.  1.
<mgrwt>
<rscale>  2 0.18819940E+03</rscale>
<asrwt>0</asrwt>
<pdfrwt beam="1">  1       21 0.50001118E-01 0.18870991E+03</pdfrwt>
<pdfrwt beam="2">  1       21 0.18708494E-01 0.18870991E+03</pdfrwt>
<totfact> 0.99743594E+04</totfact>
</mgrwt>
</event>
<event>
12    1  0.2791583E-001  0.1776263E+03  0.7546771E-02  0.1170258E+00
         21   -1    0    0  502  503  0.00000000000E+00  0.00000000000E+00  0.34035498203E+03  0.34035498203E+03  0.00000000000E+00 0. -1.
         21   -1    0    0  503  504 -0.00000000000E+00 -0.00000000000E+00 -0.10266272680E+03  0.10266272680E+03  0.00000000000E+00 0. -1.
         -6    2    1    2    0  504 -0.32516280316E+02  0.27192724019E+02  0.48671987415E+02  0.18363428356E+03  0.17191810555E+03 0.  0.
        -24    2    3    3    0    0 -0.90628233540E+01 -0.50649272329E+02  0.26646100966E+02  0.99273921347E+02  0.80609014436E+02 0.  0.
          6    2    1    2  502    0  0.32516280316E+02 -0.27192724019E+02  0.18902026782E+03  0.25938342527E+03  0.17249448377E+03 0.  0.
         24    2    5    5    0    0  0.63681637118E+02  0.33042113818E+02  0.13561504261E+03  0.17293272699E+03  0.79794461517E+02 0.  0.
          2    1    6    6  501    0  0.59004560935E+02  0.70097427511E+01  0.35135259772E+02  0.69030146920E+02  0.00000000000E+00 0. -1.
         -1    1    6    6    0  501  0.46770761827E+01  0.26032371067E+02  0.10047978284E+03  0.10390258007E+03  0.00000000000E+00 0.  1.
          5    1    5    5  502    0 -0.31165356801E+02 -0.60234837838E+02  0.53405225208E+02  0.86450698282E+02  0.47000000000E+01 0. -1.
         11    1    4    4    0    0  0.11625171802E+00  0.20566369470E+02  0.17277102975E+02  0.26860516653E+02  0.00000000000E+00 0. -1.
        -12    1    4    4    0    0 -0.91790750720E+01 -0.71215641799E+02  0.93689979912E+01  0.72413404694E+02  0.00000000000E+00 0.  1.
         -5    1    3    3    0  504 -0.23453456962E+02  0.77841996348E+02  0.22025886449E+02  0.84360362213E+02  0.47000000000E+01 0.  1.
<mgrwt>
<rscale>  2 0.17748621E+03</rscale>
<asrwt>0</asrwt>
<pdfrwt beam="1">  1       21 0.52362304E-01 0.17762629E+03</pdfrwt>
<pdfrwt beam="2">  1       21 0.15794266E-01 0.17762629E+03</pdfrwt>
<totfact> 0.12417612E+05</totfact>
</mgrwt>
</event>
<event>
12    1  0.2791583E-001  0.2136157E+03  0.7546771E-02  0.1139166E+00
         21   -1    0    0  502  503  0.00000000000E+00  0.00000000000E+00  0.15911198283E+03  0.15911198283E+03  0.00000000000E+00 0. -1.
         21   -1    0    0  503  504 -0.00000000000E+00 -0.00000000000E+00 -0.28408556851E+03  0.28408556851E+03  0.00000000000E+00 0. -1.
         -6    2    1    2    0  504  0.34883032260E+01 -0.12514859448E+03 -0.56038459817E+02  0.22084376801E+03  0.17308183593E+03 0.  0.
        -24    2    3    3    0    0 -0.63350557563E+02 -0.93407785348E+02 -0.34595521416E+02  0.14366344744E+03  0.81878132128E+02 0.  0.
          6    2    1    2  502    0 -0.34883032260E+01  0.12514859448E+03 -0.68935125860E+02  0.22235378333E+03  0.17033735475E+03 0.  0.
         24    2    5    5    0    0 -0.21676920347E+02  0.14422513288E+03 -0.20451183061E+02  0.16696856130E+03  0.78673195834E+02 0.  0.
          4    1    6    6  501    0  0.17762124554E+02  0.11564018636E+03 -0.15102291247E+02  0.11796705036E+03  0.00000000000E+00 0. -1.
         -3    1    6    6    0  501 -0.39439044901E+02  0.28584946519E+02 -0.53488918147E+01  0.49001510934E+02  0.00000000000E+00 0.  1.
          5    1    5    5  502    0  0.18188617121E+02 -0.19076538401E+02 -0.48483942798E+02  0.55385222031E+02  0.47000000000E+01 0. -1.
         11    1    4    4    0    0 -0.41819346276E+02 -0.10637119028E+03 -0.27813929940E+02  0.11763206427E+03  0.00000000000E+00 0. -1.
        -12    1    4    4    0    0 -0.21531211287E+02  0.12963404933E+02 -0.67815914758E+01  0.26031383172E+02  0.00000000000E+00 0.  1.
         -5    1    3    3    0  504  0.66838860789E+02 -0.31740809131E+02 -0.21442938401E+02  0.77180320569E+02  0.47000000000E+01 0.  1.
<mgrwt>
<rscale>  2 0.21305912E+03</rscale>
<asrwt>0</asrwt>
<pdfrwt beam="1">  1       21 0.24478767E-01 0.21361569E+03</pdfrwt>
<pdfrwt beam="2">  1       21 0.43705471E-01 0.21361569E+03</pdfrwt>
<totfact> 0.78618595E+04</totfact>
</mgrwt>
</event>
<event>
12    1  0.2791583E-001  0.1901085E+03  0.7546771E-02  0.1159365E+00
         21   -1    0    0  502  503  0.00000000000E+00  0.00000000000E+00  0.60104523181E+03  0.60104523181E+03  0.00000000000E+00 0. -1.
         21   -1    0    0  503  504 -0.00000000000E+00 -0.00000000000E+00 -0.60284358312E+02  0.60284358312E+02  0.00000000000E+00 0.  1.
         -6    2    1    2    0  504  0.61721055260E+02 -0.32139296117E+02  0.21454798027E+03  0.28376355847E+03  0.17218739286E+03 0.  0.
        -24    2    3    3    0    0  0.61047338664E+02 -0.74424466485E+02  0.19488791487E+03  0.23689034972E+03  0.94180463244E+02 0.  0.
          6    2    1    2  502    0 -0.61721055260E+02  0.32139296117E+02  0.32621289322E+03  0.37756603165E+03  0.17691476347E+03 0.  0.
         24    2    5    5    0    0 -0.64453911810E+02  0.83828820806E+02  0.27247809725E+03  0.30280779621E+03  0.79162301766E+02 0.  0.
          4    1    6    6  501    0 -0.52366701177E+02  0.54147042888E+01  0.11465869764E+03  0.12616737835E+03  0.00000000000E+00 0. -1.
         -3    1    6    6    0  501 -0.12087210632E+02  0.78414116517E+02  0.15781939960E+03  0.17664041786E+03  0.00000000000E+00 0.  1.
          5    1    5    5  502    0  0.27328565496E+01 -0.51689524689E+02  0.53734795979E+02  0.74758235442E+02  0.47000000000E+01 0. -1.
         11    1    4    4    0    0 -0.99228383714E+01  0.15468544216E+02  0.42139629065E+02  0.45972675789E+02  0.00000000000E+00 0. -1.
        -12    1    4    4    0    0  0.70970177035E+02 -0.89893010701E+02  0.15274828581E+03  0.19091767393E+03  0.00000000000E+00 0.  1.
         -5    1    3    3    0  504  0.67371659643E+00  0.42285170368E+02  0.19660065397E+02  0.46873208750E+02  0.47000000000E+01 0.  1.
<mgrwt>
<rscale>  2 0.18900109E+03</rscale>
<asrwt>0</asrwt>
<pdfrwt beam="1">  1       21 0.92468493E-01 0.19010854E+03</pdfrwt>
<pdfrwt beam="2">  1       21 0.92745171E-02 0.19010854E+03</pdfrwt>
<totfact> 0.91521737E+04</totfact>
</mgrwt>
</event>
<event>
12    1  0.2791583E-001  0.2035132E+03  0.7546771E-02  0.1146813E+00
         21   -1    0    0  502  503  0.00000000000E+00  0.00000000000E+00  0.11377537987E+03  0.11377537987E+03  0.00000000000E+00 0. -1.
         21   -1    0    0  503  504 -0.00000000000E+00 -0.00000000000E+00 -0.79930161506E+03  0.79930161506E+03  0.00000000000E+00 0. -1.
         -6    2    1    2    0  504  0.71884843778E+02  0.79462259506E+02 -0.67968998876E+03  0.70950411235E+03  0.17302000803E+03 0.  0.
        -24    2    3    3    0    0  0.23514458378E+02  0.11214574485E+03 -0.39779005196E+03  0.42158473342E+03  0.79794512185E+02 0.  0.
          6    2    1    2  502    0 -0.71884843778E+02 -0.79462259506E+02 -0.58362464292E+01  0.20357288258E+03  0.17299183593E+03 0.  0.
         24    2    5    5    0    0 -0.47626369907E+02 -0.69018164740E+02 -0.68720786004E+02  0.13520543428E+03  0.80784805843E+02 0.  0.
          4    1    6    6  501    0 -0.55534542216E+02 -0.79836967218E+02 -0.43273874033E+02  0.10644554893E+03  0.00000000000E+00 0. -1.
         -3    1    6    6    0  501  0.79081723088E+01  0.10818802478E+02 -0.25446911970E+02  0.28759885347E+02  0.00000000000E+00 0.  1.
          5    1    5    5  502    0 -0.24258473871E+02 -0.10444094766E+02  0.62884539575E+02  0.68367448304E+02  0.47000000000E+01 0. -1.
         11    1    4    4    0    0 -0.24737573782E+02  0.19444925616E+02 -0.13843416523E+03  0.14196503369E+03  0.00000000000E+00 0. -1.
        -12    1    4    4    0    0  0.48252032160E+02  0.92700819234E+02 -0.25935588673E+03  0.27961969973E+03  0.00000000000E+00 0.  1.
         -5    1    3    3    0  504  0.48370385401E+02 -0.32683485345E+02 -0.28189993680E+03  0.28791937894E+03  0.47000000000E+01 0.  1.
<mgrwt>
<rscale>  2 0.20350717E+03</rscale>
<asrwt>0</asrwt>
<pdfrwt beam="1">  1       21 0.17503905E-01 0.20351316E+03</pdfrwt>
<pdfrwt beam="2">  1       21 0.12296948E+00 0.20351316E+03</pdfrwt>
<totfact> 0.14583297E+04</totfact>
</mgrwt>
</event>
<event>
12    1  0.2791583E-001  0.2122985E+03  0.7546771E-02  0.1139820E+00
         21   -1    0    0  502  503  0.00000000000E+00  0.00000000000E+00  0.66914702371E+02  0.66914702371E+02  0.00000000000E+00 0. -1.
         21   -1    0    0  503  504 -0.00000000000E+00 -0.00000000000E+00 -0.73034004458E+03  0.73034004458E+03  0.00000000000E+00 0. -1.
         -6    2    1    2    0  504 -0.81259142915E+02 -0.92425744890E+02 -0.44360777442E+03  0.49165630822E+03  0.17260504411E+03 0.  0.
        -24    2    3    3    0    0 -0.13667398377E+02  0.21149248573E+02 -0.15734816811E+03  0.17632382452E+03  0.75482160741E+02 0.  0.
          6    2    1    2  502    0  0.81259142915E+02  0.92425744890E+02 -0.21981756779E+03  0.30559843874E+03  0.17298865866E+03 0.  0.
         24    2    5    5    0    0 -0.21150897425E+01  0.76334962726E+02 -0.14737051876E+03  0.19388075502E+03  0.10020068478E+03 0.  0.
          2    1    6    6  501    0 -0.16122011978E+02  0.34170364520E+02 -0.14449996634E+03  0.14935787008E+03  0.00000000000E+00 0. -1.
         -1    1    6    6    0  501  0.14006922235E+02  0.42164598206E+02 -0.28705524135E+01  0.44522884942E+02  0.00000000000E+00 0.  1.
          5    1    5    5  502    0  0.83374232658E+02  0.16090782164E+02 -0.72447049030E+02  0.11171768372E+03  0.47000000000E+01 0. -1.
         13    1    4    4    0    0 -0.25361375837E+02 -0.62892326255E+01 -0.13490327798E+02  0.29406509066E+02  0.00000000000E+00 0. -1.
        -14    1    4    4    0    0  0.11693977459E+02  0.27438481198E+02 -0.14385784031E+03  0.14691731545E+03  0.00000000000E+00 0.  1.
         -5    1    3    3    0  504 -0.67591744538E+02 -0.11357499346E+03 -0.28625960631E+03  0.31533248370E+03  0.47000000000E+01 0.  1.
<mgrwt>
<rscale>  2 0.21222032E+03</rscale>
<asrwt>0</asrwt>
<pdfrwt beam="1">  1       21 0.10294570E-01 0.21229848E+03</pdfrwt>
<pdfrwt beam="2">  1       21 0.11236000E+00 0.21229848E+03</pdfrwt>
<totfact> 0.47330190E+04</totfact>
</mgrwt>
</event>
<event>
12    1  0.2791583E-001  0.2277664E+03  0.7546771E-02  0.1128284E+00
         21   -1    0    0  502  503  0.00000000000E+00  0.00000000000E+00  0.49511743881E+03  0.49511743881E+03  0.00000000000E+00 0.  1.
         21   -1    0    0  503  504 -0.00000000000E+00 -0.00000000000E+00 -0.10541182886E+03  0.10541182886E+03  0.00000000000E+00 0. -1.
         -6    2    1    2    0  504 -0.11433212821E+03 -0.93370450073E+02  0.16895574702E+03  0.28359048495E+03  0.17345789753E+03 0.  0.
        -24    2    3    3    0    0 -0.99339723465E+02 -0.12120976595E+03  0.88637544766E+02  0.19714452888E+03  0.80306680315E+02 0.  0.
          6    2    1    2  502    0  0.11433212821E+03  0.93370450073E+02  0.22074986293E+03  0.31693878272E+03  0.17300235120E+03 0.  0.
         24    2    5    5    0    0  0.24377330944E+02  0.71740307331E+01  0.15720440723E+03  0.17700378639E+03  0.77274793845E+02 0.  0.
          4    1    6    6  501    0  0.12284696558E+02  0.24048769787E+02  0.15357187196E+03  0.15592811470E+03  0.00000000000E+00 0. -1.
         -3    1    6    6    0  501  0.12092634386E+02 -0.16874739054E+02  0.36325352661E+01  0.21075671685E+02  0.00000000000E+00 0.  1.
          5    1    5    5  502    0  0.89954797265E+02  0.86196419340E+02  0.63545455707E+02  0.13993499633E+03  0.47000000000E+01 0. -1.
         13    1    4    4    0    0 -0.84377867666E+02 -0.11113595389E+03  0.10353259927E+03  0.17375219109E+03  0.00000000000E+00 0. -1.
        -14    1    4    4    0    0 -0.14961855798E+02 -0.10073812061E+02 -0.14895054499E+02  0.23392337782E+02  0.00000000000E+00 0.  1.
         -5    1    3    3    0  504 -0.14992404745E+02  0.27839315880E+02  0.80318202249E+02  0.86445956072E+02  0.47000000000E+01 0.  1.
<mgrwt>
<rscale>  2 0.22767964E+03</rscale>
<asrwt>0</asrwt>
<pdfrwt beam="1">  1       21 0.76171913E-01 0.22776637E+03</pdfrwt>
<pdfrwt beam="2">  1       21 0.16217205E-01 0.22776637E+03</pdfrwt>
<totfact> 0.51382455E+04</totfact>
</mgrwt>
</event>
<event>
12    1  0.2791583E-001  0.1948222E+03  0.7546771E-02  0.1154231E+00
         21   -1    0    0  502  503  0.00000000000E+00  0.00000000000E+00  0.76001507252E+03  0.76001507252E+03  0.00000000000E+00 0.  1.
         21   -1    0    0  503  504 -0.00000000000E+00 -0.00000000000E+00 -0.21871439385E+03  0.21871439385E+03  0.00000000000E+00 0.  1.
         -6    2    1    2    0  504  0.85138709991E+00  0.90396807773E+02 -0.15926633055E+03  0.25163755783E+03  0.17257864512E+03 0.  0.
        -24    2    3    3    0    0 -0.41344653829E+02  0.88217180375E+00 -0.35223758375E+02  0.92886099151E+02  0.75345574748E+02 0.  0.
          6    2    1    2  502    0 -0.85138709991E+00 -0.90396807773E+02  0.70056700922E+03  0.72709190854E+03  0.17232585802E+03 0.  0.
         24    2    5    5    0    0  0.47398375938E+01 -0.52702332460E+02  0.67217841555E+03  0.67934112307E+03  0.82949003919E+02 0.  0.
          2    1    6    6  501    0 -0.33910991693E+02 -0.47950506910E+02  0.36306782150E+03  0.36778723398E+03  0.00000000000E+00 0. -1.
         -1    1    6    6    0  501  0.38650829287E+02 -0.47518255504E+01  0.30911059405E+03  0.31155388908E+03  0.00000000000E+00 0.  1.
          5    1    5    5  502    0 -0.55912246937E+01 -0.37694475312E+02  0.28388593666E+02  0.47750785470E+02  0.47000000000E+01 0. -1.
         11    1    4    4    0    0 -0.48919589058E+02 -0.29461227653E+01 -0.53610286924E+02  0.72635175342E+02  0.00000000000E+00 0. -1.
        -12    1    4    4    0    0  0.75749352283E+01  0.38282945691E+01  0.18386528549E+02  0.20250923809E+02  0.00000000000E+00 0.  1.
         -5    1    3    3    0  504  0.42196040929E+02  0.89514635969E+02 -0.12404257217E+03  0.15875145868E+03  0.47000000000E+01 0.  1.
<mgrwt>
<rscale>  2 0.19476622E+03</rscale>
<asrwt>0</asrwt>
<pdfrwt beam="1">  1       21 0.11692539E+00 0.19482222E+03</pdfrwt>
<pdfrwt beam="2">  1       21 0.33648369E-01 0.19482222E+03</pdfrwt>
<totfact> 0.47812482E+03</totfact>
</mgrwt>
</event>
<event>
12    1  0.2791583E-001  0.2592363E+03  0.7546771E-02  0.1108685E+00
         21   -1    0    0  502  503  0.00000000000E+00  0.00000000000E+00  0.51534122766E+03  0.51534122766E+03  0.00000000000E+00 0.  1.
         21   -1    0    0  503  504 -0.00000000000E+00 -0.00000000000E+00 -0.13638294319E+03  0.13638294319E+03  0.00000000000E+00 0. -1.
         -6    2    1    2    0  504  0.16759623785E+03  0.96017897494E+02  0.10100642632E+03  0.27164432018E+03  0.16211231585E+03 0.  0.
        -24    2    3    3    0    0  0.11549113800E+03  0.13507447849E+02  0.89757289178E+02  0.17330028723E+03  0.91956318379E+02 0.  0.
          6    2    1    2  502    0 -0.16759623785E+03 -0.96017897494E+02  0.27795185815E+03  0.38007985067E+03  0.17290321528E+03 0.  0.
         24    2    5    5    0    0 -0.19865390698E+02 -0.13882879176E+02  0.54037293507E+02  0.99490494681E+02  0.79943488543E+02 0.  0.
          4    1    6    6  501    0 -0.47002865390E+02 -0.19268629916E+02  0.17646508948E+02  0.53776841965E+02  0.00000000000E+00 0. -1.
         -3    1    6    6    0  501  0.27137474692E+02  0.53857507402E+01  0.36390784560E+02  0.45713652715E+02  0.00000000000E+00 0.  1.
          5    1    5    5  502    0 -0.14773084715E+03 -0.82135018318E+02  0.22391456464E+03  0.28058935599E+03  0.47000000000E+01 0. -1.
         11    1    4    4    0    0  0.61897782126E+02 -0.21840757533E+02  0.34440274057E+01  0.65728345838E+02  0.00000000000E+00 0. -1.
        -12    1    4    4    0    0  0.53593355876E+02  0.35348205382E+02  0.86313261772E+02  0.10757194140E+03  0.00000000000E+00 0.  1.
         -5    1    3    3    0  504  0.52105099845E+02  0.82510449645E+02  0.11249137140E+02  0.98344032950E+02  0.47000000000E+01 0.  1.
<mgrwt>
<rscale>  2 0.25745068E+03</rscale>
<asrwt>0</asrwt>
<pdfrwt beam="1">  1       21 0.79283264E-01 0.25923630E+03</pdfrwt>
<pdfrwt beam="2">  1       21 0.20981992E-01 0.25923630E+03</pdfrwt>
<totfact> 0.28641165E+04</totfact>
</mgrwt>
</event>
<event>
12    1  0.2791583E-001  0.1794877E+03  0.7546771E-02  0.1169186E+00
         21   -1    0    0  502  503  0.00000000000E+00  0.00000000000E+00  0.21056993461E+04  0.21056993461E+04  0.00000000000E+00 0.  1.
         21   -1    0    0  503  504 -0.00000000000E+00 -0.00000000000E+00 -0.19666890399E+02  0.19666890399E+02  0.00000000000E+00 0. -1.
         -6    2    1    2    0  504  0.21491850278E+02  0.23623629139E+02  0.51691860598E+03  0.54602013279E+03  0.17295422725E+03 0.  0.
        -24    2    3    3    0    0 -0.34571184729E+02  0.58473087734E+02  0.26889512963E+03  0.28931936638E+03  0.82382256696E+02 0.  0.
          6    2    1    2  502    0 -0.21491850278E+02 -0.23623629139E+02  0.15691138497E+04  0.15793461037E+04  0.17662351605E+03 0.  0.
         24    2    5    5    0    0  0.47266317098E+02  0.11764256050E+02  0.61918961922E+03  0.62626786889E+03  0.80269275529E+02 0.  0.
          4    1    6    6  501    0  0.22210284478E+02 -0.29419900497E+02  0.14415540321E+03  0.14879384247E+03  0.00000000000E+00 0. -1.
         -3    1    6    6    0  501  0.25056032620E+02  0.41184156547E+02  0.47503421601E+03  0.47747402642E+03  0.00000000000E+00 0.  1.
          5    1    5    5  502    0 -0.68758167376E+02 -0.35387885189E+02  0.94992423050E+03  0.95307823482E+03  0.47000000000E+01 0. -1.
         13    1    4    4    0    0 -0.19303882004E+02 -0.76296155459E+01  0.12790756819E+02  0.24381434613E+02  0.00000000000E+00 0. -1.
        -14    1    4    4    0    0 -0.15267302725E+02  0.66102703280E+02  0.25610437281E+03  0.26493793176E+03  0.00000000000E+00 0.  1.
         -5    1    3    3    0  504  0.56063035007E+02 -0.34849458595E+02  0.24802347635E+03  0.25670076642E+03  0.47000000000E+01 0.  1.
<mgrwt>
<rscale>  2 0.17857845E+03</rscale>
<asrwt>0</asrwt>
<pdfrwt beam="1">  1       21 0.32395357E+00 0.17948772E+03</pdfrwt>
<pdfrwt beam="2">  1       21 0.30256771E-02 0.17948772E+03</pdfrwt>
<totfact> 0.15720592E+04</totfact>
</mgrwt>
</event>
<event>
12    1  0.2791583E-001  0.2468560E+03  0.7546771E-02  0.1115545E+00
         21   -1    0    0  502  503  0.00000000000E+00  0.00000000000E+00  0.62960945415E+03  0.62960945415E+03  0.00000000000E+00 0. -1.
         21   -1    0    0  503  504 -0.00000000000E+00 -0.00000000000E+00 -0.41078638362E+03  0.41078638362E+03  0.00000000000E+00 0.  1.
         -6    2    1    2    0  504  0.13896293232E+03  0.11175785737E+03 -0.34588597283E+03  0.42408893540E+03  0.16856394540E+03 0.  0.
        -24    2    3    3    0    0  0.11330497946E+02  0.40057866601E+02 -0.82669634730E+02  0.12286500272E+03  0.80799303992E+02 0.  0.
          6    2    1    2  502    0 -0.13896293232E+03 -0.11175785737E+03  0.56470904336E+03  0.61630690237E+03  0.17069674577E+03 0.  0.
         24    2    5    5    0    0 -0.13841028322E+03 -0.29712898283E+02  0.38727565703E+03  0.42076566039E+03  0.83791667890E+02 0.  0.
          2    1    6    6  501    0 -0.12932358690E+03  0.88727420270E+00  0.33958846265E+03  0.36338093146E+03  0.00000000000E+00 0. -1.
         -1    1    6    6    0  501 -0.90866963200E+01 -0.30600172486E+02  0.47687194381E+02  0.57384728928E+02  0.00000000000E+00 0.  1.
          5    1    5    5  502    0 -0.55264909355E+00 -0.82044959082E+02  0.17743338633E+03  0.19554124199E+03  0.47000000000E+01 0. -1.
         11    1    4    4    0    0 -0.29064523950E+01  0.59097048326E+02 -0.32879184791E+02  0.67690098086E+02  0.00000000000E+00 0. -1.
        -12    1    4    4    0    0  0.14236950341E+02 -0.19039181725E+02 -0.49790449939E+02  0.55174904630E+02  0.00000000000E+00 0.  1.
         -5    1    3    3    0  504  0.12763243437E+03  0.71699990764E+02 -0.26321633810E+03  0.30122393268E+03  0.47000000000E+01 0.  1.
<mgrwt>
<rscale>  2 0.24648771E+03</rscale>
<asrwt>0</asrwt>
<pdfrwt beam="1">  1       21 0.96862993E-01 0.24685602E+03</pdfrwt>
<pdfrwt beam="2">  1       21 0.63197905E-01 0.24685602E+03</pdfrwt>
<totfact> 0.19610115E+03</totfact>
</mgrwt>
</event>
<event>
12    1  0.2791583E-001  0.2053510E+03  0.7546771E-02  0.1145437E+00
         21   -1    0    0  502  503  0.00000000000E+00  0.00000000000E+00  0.61635902397E+02  0.61635902397E+02  0.00000000000E+00 0.  1.
         21   -1    0    0  503  504 -0.00000000000E+00 -0.00000000000E+00 -0.88541956095E+03  0.88541956095E+03  0.00000000000E+00 0. -1.
         -6    2    1    2    0  504 -0.10716468268E+03 -0.13072286365E+02 -0.18437588338E+03  0.27548167467E+03  0.17389805296E+03 0.  0.
        -24    2    3    3    0    0 -0.29424887440E+00 -0.29533396149E+02 -0.10025606245E+03  0.13840325904E+03  0.90729686350E+02 0.  0.
          6    2    1    2  502    0  0.10716468268E+03  0.13072286365E+02 -0.63940777517E+03  0.67157378867E+03  0.17468227386E+03 0.  0.
         24    2    5    5    0    0  0.33425041331E+02  0.69128415098E+02 -0.32067158672E+03  0.33961796014E+03  0.81327247296E+02 0.  0.
          4    1    6    6  501    0  0.34857466530E+02  0.57733460921E+02 -0.11275547632E+03  0.13138490371E+03  0.00000000000E+00 0. -1.
         -3    1    6    6    0  501 -0.14324251994E+01  0.11394954177E+02 -0.20791611041E+03  0.20823305643E+03  0.00000000000E+00 0.  1.
          5    1    5    5  502    0  0.73739641353E+02 -0.56056128733E+02 -0.31873618844E+03  0.33195582854E+03  0.47000000000E+01 0. -1.
         11    1    4    4    0    0 -0.34088846452E+02 -0.45865911896E+02 -0.51962739462E+02  0.77238964382E+02  0.00000000000E+00 0. -1.
        -12    1    4    4    0    0  0.33794597577E+02  0.16332515747E+02 -0.48293322989E+02  0.61164294661E+02  0.00000000000E+00 0.  1.
         -5    1    3    3    0  504 -0.10687043381E+03  0.16461109784E+02 -0.84119820931E+02  0.13707841563E+03  0.47000000000E+01 0.  1.
<mgrwt>
<rscale>  2 0.20518417E+03</rscale>
<asrwt>0</asrwt>
<pdfrwt beam="1">  1       21 0.94824470E-02 0.20535104E+03</pdfrwt>
<pdfrwt beam="2">  1       21 0.13621839E+00 0.20535104E+03</pdfrwt>
<totfact> 0.33960127E+04</totfact>
</mgrwt>
</event>
<event>
12    1  0.2791583E-001  0.2404745E+03  0.7546771E-02  0.1119511E+00
         21   -1    0    0  502  503  0.00000000000E+00  0.00000000000E+00  0.66411067293E+03  0.66411067293E+03  0.00000000000E+00 0. -1.
         21   -1    0    0  503  504 -0.00000000000E+00 -0.00000000000E+00 -0.43232541212E+03  0.43232541212E+03  0.00000000000E+00 0.  1.
         -6    2    1    2    0  504  0.16761782681E+03 -0.79309302468E+01 -0.37405843143E+03  0.44468831600E+03  0.17224793974E+03 0.  0.
        -24    2    3    3    0    0  0.27641481395E+02 -0.29277396747E+02 -0.92072493234E+02  0.12911390600E+03  0.81066881388E+02 0.  0.
          6    2    1    2  502    0 -0.16761782681E+03  0.79309302468E+01  0.60584369224E+03  0.65174776905E+03  0.17195912164E+03 0.  0.
         24    2    5    5    0    0 -0.80153095685E+02  0.41830945837E+01  0.50761170589E+03  0.52008251697E+03  0.79838358432E+02 0.  0.
          2    1    6    6  501    0 -0.71179443404E+02 -0.28998096492E+02  0.30256051670E+03  0.31217025648E+03  0.00000000000E+00 0. -1.
         -1    1    6    6    0  501 -0.89736522807E+01  0.33181191076E+02  0.20505118919E+03  0.20791226049E+03  0.00000000000E+00 0.  1.
          5    1    5    5  502    0 -0.87464731122E+02  0.37478356631E+01  0.98231986357E+02  0.13166525208E+03  0.47000000000E+01 0. -1.
         13    1    4    4    0    0 -0.17854556599E+02  0.35307056368E+01 -0.63711324827E+02  0.66259972720E+02  0.00000000000E+00 0. -1.
        -14    1    4    4    0    0  0.45496037995E+02 -0.32808102384E+02 -0.28361168407E+02  0.62853933279E+02  0.00000000000E+00 0.  1.
         -5    1    3    3    0  504  0.13997634541E+03  0.21346466500E+02 -0.28198593819E+03  0.31557441000E+03  0.47000000000E+01 0.  1.
<mgrwt>
<rscale>  2 0.24042279E+03</rscale>
<asrwt>0</asrwt>
<pdfrwt beam="1">  1       21 0.10217087E+00 0.24047451E+03</pdfrwt>
<pdfrwt beam="2">  1       21 0.66511602E-01 0.24047451E+03</pdfrwt>
<totfact> 0.15512802E+03</totfact>
</mgrwt>
</event>
<event>
12    1  0.2791583E-001  0.2573027E+03  0.7546771E-02  0.1109183E+00
         21   -1    0    0  502  503  0.00000000000E+00  0.00000000000E+00  0.18064243859E+03  0.18064243859E+03  0.00000000000E+00 0.  1.
         21   -1    0    0  503  504 -0.00000000000E+00 -0.00000000000E+00 -0.36308795058E+03  0.36308795058E+03  0.00000000000E+00 0. -1.
         -6    2    1    2    0  504  0.17994019327E+03  0.53508116153E+02 -0.81984994536E+02  0.26751125952E+03  0.17204401470E+03 0.  0.
        -24    2    3    3    0    0  0.45331213520E+02  0.52828814531E+02 -0.79252515129E+02  0.13279082557E+03  0.80663744254E+02 0.  0.
          6    2    1    2  502    0 -0.17994019327E+03 -0.53508116153E+02 -0.10046051745E+03  0.27621912966E+03  0.17596334951E+03 0.  0.
         24    2    5    5    0    0 -0.81280382223E+02 -0.82231008852E+02 -0.12955040884E+02  0.14117076310E+03  0.79955687213E+02 0.  0.
          4    1    6    6  501    0 -0.38560801896E+02 -0.87652393695E+02 -0.19178652480E+02  0.97661140042E+02  0.00000000000E+00 0. -1.
         -3    1    6    6    0  501 -0.42719580327E+02  0.54213848438E+01  0.62236115960E+01  0.43509623053E+02  0.00000000000E+00 0.  1.
          5    1    5    5  502    0 -0.98659811049E+02  0.28722892698E+02 -0.87505476567E+02  0.13504836656E+03  0.47000000000E+01 0. -1.
         11    1    4    4    0    0 -0.17634591960E+02  0.55907010933E+01  0.32255761843E+01  0.18778687761E+02  0.00000000000E+00 0. -1.
        -12    1    4    4    0    0  0.62965805479E+02  0.47238113438E+02 -0.82478091313E+02  0.11401213781E+03  0.00000000000E+00 0.  1.
         -5    1    3    3    0  504  0.13460897975E+03  0.67930162181E+00 -0.27324794068E+01  0.13472043395E+03  0.47000000000E+01 0.  1.
<mgrwt>
<rscale>  2 0.25663405E+03</rscale>
<asrwt>0</asrwt>
<pdfrwt beam="1">  1       21 0.27791144E-01 0.25730272E+03</pdfrwt>
<pdfrwt beam="2">  1       21 0.55859685E-01 0.25730272E+03</pdfrwt>
<totfact> 0.36185362E+04</totfact>
</mgrwt>
</event>
<event>
12    1  0.2791583E-001  0.1835789E+03  0.7546771E-02  0.1164620E+00
         21   -1    0    0  502  503  0.00000000000E+00  0.00000000000E+00  0.13780008038E+03  0.13780008038E+03  0.00000000000E+00 0. -1.
         21   -1    0    0  503  504 -0.00000000000E+00 -0.00000000000E+00 -0.24578485754E+03  0.24578485754E+03  0.00000000000E+00 0.  1.
         -6    2    1    2    0  504  0.39337770967E+02 -0.40711325873E+02 -0.73665747387E+02  0.19780760313E+03  0.17463199374E+03 0.  0.
        -24    2    3    3    0    0  0.31572871903E+02 -0.65708368546E+01 -0.11477818084E+03  0.14360254034E+03  0.80047714882E+02 0.  0.
          6    2    1    2  502    0 -0.39337770967E+02  0.40711325873E+02 -0.34319029772E+02  0.18577733479E+03  0.17358153715E+03 0.  0.
         24    2    5    5    0    0 -0.31863316006E+02  0.79913299874E+02  0.22644569685E+02  0.11606647548E+03  0.74546923422E+02 0.  0.
          4    1    6    6  501    0 -0.24078301640E+02  0.18463047127E+02  0.41417661083E+02  0.51342685639E+02  0.00000000000E+00 0. -1.
         -3    1    6    6    0  501 -0.77850143659E+01  0.61450252747E+02 -0.18773091398E+02  0.64723789845E+02  0.00000000000E+00 0.  1.
          5    1    5    5  502    0 -0.74744549617E+01 -0.39201974001E+02 -0.56963599457E+02  0.69710859309E+02  0.47000000000E+01 0. -1.
         13    1    4    4    0    0  0.45954884788E+02 -0.31885683197E+02 -0.63384758185E+02  0.84535056627E+02  0.00000000000E+00 0. -1.
        -14    1    4    4    0    0 -0.14382012885E+02  0.25314846342E+02 -0.51393422652E+02  0.59067483710E+02  0.00000000000E+00 0.  1.
         -5    1    3    3    0  504  0.77648990645E+01 -0.34140489018E+02  0.41112433450E+02  0.54205062790E+02  0.47000000000E+01 0.  1.
<mgrwt>
<rscale>  2 0.18332863E+03</rscale>
<asrwt>0</asrwt>
<pdfrwt beam="1">  1       21 0.21200012E-01 0.18357888E+03</pdfrwt>
<pdfrwt beam="2">  1       21 0.37813055E-01 0.18357888E+03</pdfrwt>
<totfact> 0.14001459E+05</totfact>
</mgrwt>
</event>
<event>
12    1  0.2791583E-001  0.1939162E+03  0.7546771E-02  0.1155548E+00
         21   -1    0    0  502  503  0.00000000000E+00  0.00000000000E+00  0.66349898651E+02  0.66349898651E+02  0.00000000000E+00 0.  1.
         21   -1    0    0  503  504 -0.00000000000E+00 -0.00000000000E+00 -0.62845285045E+03  0.62845285045E+03  0.00000000000E+00 0.  1.
         -6    2    1    2    0  504  0.82135300518E+02  0.30121738729E+02 -0.39804024103E+03  0.44276351633E+03  0.17306059973E+03 0.  0.
        -24    2    3    3    0    0 -0.14870782735E+02  0.47270201105E+02 -0.18910202726E+03  0.21171911124E+03  0.81300635044E+02 0.  0.
          6    2    1    2  502    0 -0.82135300518E+02 -0.30121738729E+02 -0.16406271077E+03  0.25203923278E+03  0.17015779458E+03 0.  0.
         24    2    5    5    0    0  0.14658735338E+02 -0.39796011329E+02 -0.10367339388E+03  0.13744587990E+03  0.79652973987E+02 0.  0.
          4    1    6    6  501    0  0.44739714027E+02 -0.28024523553E+02 -0.40659252225E+02  0.66634756120E+02  0.00000000000E+00 0. -1.
         -3    1    6    6    0  501 -0.30080978689E+02 -0.11771487776E+02 -0.63014141650E+02  0.70811123782E+02  0.00000000000E+00 0.  1.
          5    1    5    5  502    0 -0.96794035856E+02  0.96742726000E+01 -0.60389316898E+02  0.11459335287E+03  0.47000000000E+01 0. -1.
         13    1    4    4    0    0 -0.27401391453E+02  0.33690856305E+02 -0.18828006313E+03  0.19322342566E+03  0.00000000000E+00 0. -1.
        -14    1    4    4    0    0  0.12530608718E+02  0.13579344800E+02 -0.82196413118E+00  0.18495685580E+02  0.00000000000E+00 0.  1.
         -5    1    3    3    0  504  0.97006083253E+02 -0.17148462376E+02 -0.20893821377E+03  0.23104440509E+03  0.47000000000E+01 0.  1.
<mgrwt>
<rscale>  2 0.19326642E+03</rscale>
<asrwt>0</asrwt>
<pdfrwt beam="1">  1       21 0.10207676E-01 0.19391621E+03</pdfrwt>
<pdfrwt beam="2">  1       21 0.96685057E-01 0.19391621E+03</pdfrwt>
<totfact> 0.69519958E+04</totfact>
</mgrwt>
</event>
<event>
12    1  0.2791583E-001  0.1675412E+03  0.7546771E-02  0.1180511E+00
         21   -1    0    0  502  503  0.00000000000E+00  0.00000000000E+00  0.21832295892E+03  0.21832295892E+03  0.00000000000E+00 0. -1.
         21   -1    0    0  503  504 -0.00000000000E+00 -0.00000000000E+00 -0.13945250784E+03  0.13945250784E+03  0.00000000000E+00 0. -1.
         -6    2    1    2    0  504  0.17564729266E+02  0.26823177237E+02 -0.10991964655E+02  0.16790134236E+03  0.16444462572E+03 0.  0.
        -24    2    3    3    0    0  0.31625317193E+02  0.20029767100E+02 -0.66749427261E+02  0.10980801064E+03  0.78746180247E+02 0.  0.
          6    2    1    2  502    0 -0.17564729266E+02 -0.26823177237E+02  0.89862415729E+02  0.18987412440E+03  0.16416128291E+03 0.  0.
         24    2    5    5    0    0  0.45699957671E+02 -0.10050532767E+02  0.22671418787E+02  0.95956808184E+02  0.80648722663E+02 0.  0.
          2    1    6    6  501    0  0.62165926193E+02 -0.27735259629E+02  0.10421393373E+02  0.68865466280E+02  0.00000000000E+00 0. -1.
         -1    1    6    6    0  501 -0.16465968522E+02  0.17684726863E+02  0.12250025414E+02  0.27091341905E+02  0.00000000000E+00 0.  1.
          5    1    5    5  502    0 -0.63264686937E+02 -0.16772644470E+02  0.67190996942E+02  0.93917316219E+02  0.47000000000E+01 0. -1.
         11    1    4    4    0    0 -0.13966160531E+02 -0.21420690137E+02 -0.19220127450E+02  0.31989262342E+02  0.00000000000E+00 0. -1.
        -12    1    4    4    0    0  0.45591477724E+02  0.41450457238E+02 -0.47529299810E+02  0.77818748299E+02  0.00000000000E+00 0.  1.
         -5    1    3    3    0  504 -0.14060587927E+02  0.67934101368E+01  0.55757462606E+02  0.58093331720E+02  0.47000000000E+01 0.  1.
<mgrwt>
<rscale>  2 0.16747158E+03</rscale>
<asrwt>0</asrwt>
<pdfrwt beam="1">  1       21 0.33588148E-01 0.16754115E+03</pdfrwt>
<pdfrwt beam="2">  1       21 0.21454232E-01 0.16754115E+03</pdfrwt>
<totfact> 0.17413477E+05</totfact>
</mgrwt>
</event>
<event>
12    1  0.2791583E-001  0.2209528E+03  0.7546771E-02  0.1135795E+00
         21   -1    0    0  502  503  0.00000000000E+00  0.00000000000E+00  0.21115995611E+03  0.21115995611E+03  0.00000000000E+00 0. -1.
         21   -1    0    0  503  504 -0.00000000000E+00 -0.00000000000E+00 -0.37572995827E+03  0.37572995827E+03  0.00000000000E+00 0. -1.
         -6    2    1    2    0  504 -0.17394011389E+02 -0.13636275915E+03 -0.27136832635E+03  0.34148003814E+03  0.15514668602E+03 0.  0.
        -24    2    3    3    0    0 -0.64400392975E+02 -0.59791535323E+02 -0.15587193599E+03  0.19507560372E+03  0.77691649674E+02 0.  0.
          6    2    1    2  502    0  0.17394011389E+02  0.13636275915E+03  0.10679832418E+03  0.24540987624E+03  0.17298199789E+03 0.  0.
         24    2    5    5    0    0 -0.52186267253E+02  0.61569677893E+02  0.79982864342E+02  0.13969053522E+03  0.81252417296E+02 0.  0.
          2    1    6    6  501    0 -0.18726074826E+02  0.67435808198E+02  0.79225523921E+02  0.10571157811E+03  0.00000000000E+00 0. -1.
         -1    1    6    6    0  501 -0.33460192427E+02 -0.58661303046E+01  0.75734042116E+00  0.33978957113E+02  0.00000000000E+00 0.  1.
          5    1    5    5  502    0  0.69580278642E+02  0.74793081255E+02  0.26815459841E+02  0.10571934102E+03  0.47000000000E+01 0. -1.
         11    1    4    4    0    0  0.14832482821E+02 -0.94231384588E+01 -0.52826749287E+02  0.55672825735E+02  0.00000000000E+00 0. -1.
        -12    1    4    4    0    0 -0.79232875796E+02 -0.50368396864E+02 -0.10304518670E+03  0.13940277799E+03  0.00000000000E+00 0.  1.
         -5    1    3    3    0  504  0.47006381586E+02 -0.76571223826E+02 -0.11549639037E+03  0.14640443441E+03  0.47000000000E+01 0.  1.
<mgrwt>
<rscale>  2 0.21745407E+03</rscale>
<asrwt>0</asrwt>
<pdfrwt beam="1">  1       21 0.32486147E-01 0.22095277E+03</pdfrwt>
<pdfrwt beam="2">  1       21 0.57804609E-01 0.22095277E+03</pdfrwt>
<totfact> 0.25190453E+04</totfact>
</mgrwt>
</event>
<event>
12    1  0.2791583E-001  0.1832294E+03  0.7546771E-02  0.1166945E+00
         21   -1    0    0  502  503  0.00000000000E+00  0.00000000000E+00  0.14060939637E+03  0.14060939637E+03  0.00000000000E+00 0.  1.
         21   -1    0    0  503  504 -0.00000000000E+00 -0.00000000000E+00 -0.23552810997E+03  0.23552810997E+03  0.00000000000E+00 0.  1.
         -6    2    1    2    0  504 -0.55008862502E+02  0.25728029068E+02 -0.82162814188E+02  0.19246465620E+03  0.16310735549E+03 0.  0.
        -24    2    3    3    0    0 -0.33394984776E+02 -0.39824205269E+02 -0.79785805541E+02  0.12324041689E+03  0.78238310673E+02 0.  0.
          6    2    1    2  502    0  0.55008862502E+02 -0.25728029068E+02 -0.12755899412E+02  0.18367285015E+03  0.17287306464E+03 0.  0.
         24    2    5    5    0    0 -0.11695671468E+02 -0.28361786279E+02 -0.54262497058E+02  0.10492439507E+03  0.84401009720E+02 0.  0.
          4    1    6    6  501    0  0.35659952080E+02 -0.22858674078E+01 -0.20814930116E+02  0.41353581319E+02  0.00000000000E+00 0. -1.
         -3    1    6    6    0  501 -0.47355623548E+02 -0.26075918872E+02 -0.33447566942E+02  0.63570813751E+02  0.00000000000E+00 0.  1.
          5    1    5    5  502    0  0.66704533970E+02  0.26337572117E+01  0.41506597646E+02  0.78748455079E+02  0.47000000000E+01 0. -1.
         13    1    4    4    0    0 -0.47133551652E+02 -0.48166665027E+02 -0.82933115275E+02  0.10686206493E+03  0.00000000000E+00 0. -1.
        -14    1    4    4    0    0  0.13738566876E+02  0.83424597588E+01  0.31473097340E+01  0.16378351968E+02  0.00000000000E+00 0.  1.
         -5    1    3    3    0  504 -0.21613877726E+02  0.65552234336E+02 -0.23770086471E+01  0.69224239302E+02  0.47000000000E+01 0.  1.
<mgrwt>
<rscale>  2 0.18088900E+03</rscale>
<asrwt>0</asrwt>
<pdfrwt beam="1">  1       21 0.21632215E-01 0.18322937E+03</pdfrwt>
<pdfrwt beam="2">  1       21 0.36235094E-01 0.18322937E+03</pdfrwt>
<totfact> 0.14679843E+05</totfact>
</mgrwt>
</event>
<event>
12    1  0.2791583E-001  0.2179281E+03  0.7546771E-02  0.1135563E+00
         21   -1    0    0  502  503  0.00000000000E+00  0.00000000000E+00  0.29455226115E+03  0.29455226115E+03  0.00000000000E+00 0.  1.
         21   -1    0    0  503  504 -0.00000000000E+00 -0.00000000000E+00 -0.17108802177E+03  0.17108802177E+03  0.00000000000E+00 0. -1.
         -6    2    1    2    0  504 -0.57759127375E+02 -0.11752029614E+03  0.43987125179E+01  0.21730733357E+03  0.17336663967E+03 0.  0.
        -24    2    3    3    0    0 -0.88149694657E+02 -0.13334516754E+03  0.18304251676E+02  0.18003177652E+03  0.80778044994E+02 0.  0.
          6    2    1    2  502    0  0.57759127375E+02  0.11752029614E+03  0.11906552686E+03  0.24833294934E+03  0.17419964765E+03 0.  0.
         24    2    5    5    0    0  0.88010763060E+02  0.67487987818E+02  0.12990228265E+03  0.18868465839E+03  0.80167165100E+02 0.  0.
          2    1    6    6  501    0  0.10337701773E+03  0.56896289897E+02  0.10866423476E+03  0.16041169382E+03  0.00000000000E+00 0. -1.
         -1    1    6    6    0  501 -0.15366254668E+02  0.10591697921E+02  0.21238047889E+02  0.28272964569E+02  0.00000000000E+00 0.  1.
          5    1    5    5  502    0 -0.30251635686E+02  0.50032308323E+02 -0.10836755787E+02  0.59648290955E+02  0.47000000000E+01 0. -1.
         11    1    4    4    0    0 -0.55792541295E+01  0.98291430976E+01 -0.62891674047E+01  0.12934208801E+02  0.00000000000E+00 0. -1.
        -12    1    4    4    0    0 -0.82570440528E+02 -0.14317431063E+03  0.24593419081E+02  0.16709756772E+03  0.00000000000E+00 0.  1.
         -5    1    3    3    0  504  0.30390567283E+02  0.15824871394E+02 -0.13905539158E+02  0.37275557054E+02  0.47000000000E+01 0.  1.
<mgrwt>
<rscale>  2 0.21776158E+03</rscale>
<asrwt>0</asrwt>
<pdfrwt beam="1">  1       21 0.45315733E-01 0.21792809E+03</pdfrwt>
<pdfrwt beam="2">  1       21 0.26321234E-01 0.21792809E+03</pdfrwt>
<totfact> 0.63387603E+04</totfact>
</mgrwt>
</event>
<event>
12    1  0.2791583E-001  0.2291422E+03  0.7546771E-02  0.1127409E+00
         21   -1    0    0  502  503  0.00000000000E+00  0.00000000000E+00  0.22817955284E+03  0.22817955284E+03  0.00000000000E+00 0. -1.
         21   -1    0    0  503  504 -0.00000000000E+00 -0.00000000000E+00 -0.22926192798E+03  0.22926192798E+03  0.00000000000E+00 0. -1.
         -6    2    1    2    0  504  0.11941251616E+03  0.95520737259E+02 -0.48266622710E+01  0.22826866749E+03  0.16940993957E+03 0.  0.
        -24    2    3    3    0    0  0.11651954884E+03  0.57465342384E+02 -0.54488930522E+02  0.16545932720E+03  0.86767935158E+02 0.  0.
          6    2    1    2  502    0 -0.11941251616E+03 -0.95520737259E+02  0.37442871323E+01  0.22917281333E+03  0.17065344538E+03 0.  0.
         24    2    5    5    0    0 -0.99084513247E+02 -0.20678482691E+01  0.31513843320E+02  0.12947372399E+03  0.77125262541E+02 0.  0.
          2    1    6    6  501    0 -0.44949824766E+02 -0.22499662981E+02 -0.17925161215E+02  0.53366965300E+02  0.00000000000E+00 0. -1.
         -1    1    6    6    0  501 -0.54134688481E+02  0.20431814712E+02  0.49439004536E+02  0.76106758694E+02  0.00000000000E+00 0.  1.
          5    1    5    5  502    0 -0.20328002910E+02 -0.93452888990E+02 -0.27769556188E+02  0.99699089333E+02  0.47000000000E+01 0. -1.
         13    1    4    4    0    0  0.87509373126E+02 -0.10168697442E+01 -0.48107054303E+02  0.99865975601E+02  0.00000000000E+00 0. -1.
        -14    1    4    4    0    0  0.29010175717E+02  0.58482212128E+02 -0.63818762190E+01  0.65593351604E+02  0.00000000000E+00 0.  1.
         -5    1    3    3    0  504  0.28929673143E+01  0.38055394875E+02  0.49662268251E+02  0.62809340284E+02  0.47000000000E+01 0.  1.
<mgrwt>
<rscale>  2 0.22891073E+03</rscale>
<asrwt>0</asrwt>
<pdfrwt beam="1">  1       21 0.35104546E-01 0.22914222E+03</pdfrwt>
<pdfrwt beam="2">  1       21 0.35271066E-01 0.22914222E+03</pdfrwt>
<totfact> 0.59652350E+04</totfact>
</mgrwt>
</event>
<event>
12    1  0.2791583E-001  0.1767764E+03  0.7546771E-02  0.1171064E+00
         21   -1    0    0  502  503  0.00000000000E+00  0.00000000000E+00  0.22705271355E+03  0.22705271355E+03  0.00000000000E+00 0. -1.
         21   -1    0    0  503  504 -0.00000000000E+00 -0.00000000000E+00 -0.76011014696E+03  0.76011014696E+03  0.00000000000E+00 0. -1.
         -6    2    1    2    0  504  0.30634022300E+02  0.17866799962E+02 -0.71336918279E+03  0.73494591900E+03  0.17318269844E+03 0.  0.
        -24    2    3    3    0    0  0.44064827463E+02  0.70633261888E+02 -0.55436996861E+03  0.56681642682E+03  0.83809503697E+02 0.  0.
          6    2    1    2  502    0 -0.30634022300E+02 -0.17866799962E+02  0.18031174938E+03  0.25221694150E+03  0.17275240303E+03 0.  0.
         24    2    5    5    0    0  0.10669733684E+02 -0.84263920364E+01  0.19112923499E+03  0.20823706480E+03  0.81531855043E+02 0.  0.
          2    1    6    6  501    0 -0.20596420119E+02 -0.31592477834E+02  0.13331619622E+03  0.13854784500E+03  0.00000000000E+00 0. -1.
         -1    1    6    6    0  501  0.31266153803E+02  0.23166085798E+02  0.57813038771E+02  0.69689219803E+02  0.00000000000E+00 0.  1.
          5    1    5    5  502    0 -0.41303755984E+02 -0.94404079259E+01 -0.10817485609E+02  0.43979876706E+02  0.47000000000E+01 0. -1.
         13    1    4    4    0    0  0.22830685268E+02 -0.15252194822E+01 -0.31675497630E+03  0.31758035439E+03  0.00000000000E+00 0. -1.
        -14    1    4    4    0    0  0.21234142196E+02  0.72158481370E+02 -0.23761499231E+03  0.24923607243E+03  0.00000000000E+00 0.  1.
         -5    1    3    3    0  504 -0.13430805163E+02 -0.52766461926E+02 -0.15899921418E+03  0.16812949218E+03  0.47000000000E+01 0.  1.
<mgrwt>
<rscale>  2 0.17667097E+03</rscale>
<asrwt>0</asrwt>
<pdfrwt beam="1">  1       21 0.34931187E-01 0.17677645E+03</pdfrwt>
<pdfrwt beam="2">  1       21 0.11694002E+00 0.17677645E+03</pdfrwt>
<totfact> 0.45058957E+03</totfact>
</mgrwt>
</event>
<event>
12    1  0.2791583E-001  0.1765172E+03  0.7546771E-02  0.1173473E+00
         21   -1    0    0  502  503  0.00000000000E+00  0.00000000000E+00  0.30052473571E+03  0.30052473571E+03  0.00000000000E+00 0. -1.
         21   -1    0    0  503  504 -0.00000000000E+00 -0.00000000000E+00 -0.13797037089E+03  0.13797037089E+03  0.00000000000E+00 0. -1.
         -6    2    1    2    0  504  0.32911101377E+02 -0.29737718361E+00  0.19993274259E+03  0.26670473522E+03  0.17342169761E+03 0.  0.
        -24    2    3    3    0    0  0.37150718959E+02  0.32317300936E+02  0.21156974664E+03  0.23150244197E+03  0.80043982194E+02 0.  0.
          6    2    1    2  502    0 -0.32911101377E+02  0.29737718361E+00 -0.37378377765E+02  0.17179037138E+03  0.16441277185E+03 0.  0.
         24    2    5    5    0    0  0.33142446464E+00 -0.31380179216E+02  0.27677248082E+02  0.92022849426E+02  0.81959436707E+02 0.  0.
          2    1    6    6  501    0  0.33464555143E+02 -0.18772355143E+02 -0.10643391486E+02  0.39819085258E+02  0.00000000000E+00 0. -1.
         -1    1    6    6    0  501 -0.33133130678E+02 -0.12607824073E+02  0.38320639568E+02  0.52203764168E+02  0.00000000000E+00 0.  1.
          5    1    5    5  502    0 -0.33242525842E+02  0.31677556400E+02 -0.65055625848E+02  0.79767521951E+02  0.47000000000E+01 0. -1.
         13    1    4    4    0    0  0.56653895918E+02  0.41787423196E+02  0.13972203153E+03  0.15645478182E+03  0.00000000000E+00 0. -1.
        -14    1    4    4    0    0 -0.19503176959E+02 -0.94701222593E+01  0.71847715114E+02  0.75047660151E+02  0.00000000000E+00 0.  1.
         -5    1    3    3    0  504 -0.42396175818E+01 -0.32614678120E+02 -0.11637004057E+02  0.35202293243E+02  0.47000000000E+01 0.  1.
<mgrwt>
<rscale>  2 0.17426376E+03</rscale>
<asrwt>0</asrwt>
<pdfrwt beam="1">  1       21 0.46234575E-01 0.17651718E+03</pdfrwt>
<pdfrwt beam="2">  1       21 0.21226211E-01 0.17651718E+03</pdfrwt>
<totfact> 0.93129781E+04</totfact>
</mgrwt>
</event>
<event>
12    1  0.2791583E-001  0.2271389E+03  0.7546771E-02  0.1128841E+00
         21   -1    0    0  502  503  0.00000000000E+00  0.00000000000E+00  0.30901698128E+03  0.30901698128E+03  0.00000000000E+00 0.  1.
         21   -1    0    0  503  504 -0.00000000000E+00 -0.00000000000E+00 -0.19289415200E+03  0.19289415200E+03  0.00000000000E+00 0.  1.
         -6    2    1    2    0  504 -0.93638068947E+02 -0.11133208588E+03 -0.35305553339E+02  0.22892277620E+03  0.17319420910E+03 0.  0.
        -24    2    3    3    0    0 -0.11551672237E+03 -0.49711317497E+02 -0.56688613549E+02  0.15996539926E+03  0.80993838159E+02 0.  0.
          6    2    1    2  502    0  0.93638068947E+02  0.11133208588E+03  0.15142838262E+03  0.27298835708E+03  0.17443957904E+03 0.  0.
         24    2    5    5    0    0  0.38543382582E+01  0.22189204381E+02  0.11843020084E+02  0.84537474742E+02  0.80617062689E+02 0.  0.
          2    1    6    6  501    0 -0.38212950214E+02  0.62926596558E+01  0.59667592324E+01  0.39184554934E+02  0.00000000000E+00 0. -1.
         -1    1    6    6    0  501  0.42067288472E+02  0.15896544725E+02  0.58762608512E+01  0.45352919809E+02  0.00000000000E+00 0.  1.
          5    1    5    5  502    0  0.89783730689E+02  0.89142881498E+02  0.13958536254E+03  0.18845088234E+03  0.47000000000E+01 0. -1.
         11    1    4    4    0    0  0.10856778611E+02  0.43897039061E+01 -0.13901811563E+01  0.11792868431E+02  0.00000000000E+00 0. -1.
        -12    1    4    4    0    0 -0.12637350098E+03 -0.54101021403E+02 -0.55298432392E+02  0.14817253082E+03  0.00000000000E+00 0.  1.
         -5    1    3    3    0  504  0.21878653419E+02 -0.61620768382E+02  0.21383060210E+02  0.68957376946E+02  0.47000000000E+01 0.  1.
<mgrwt>
<rscale>  2 0.22689979E+03</rscale>
<asrwt>0</asrwt>
<pdfrwt beam="1">  1       21 0.47541074E-01 0.22713892E+03</pdfrwt>
<pdfrwt beam="2">  1       21 0.29676024E-01 0.22713892E+03</pdfrwt>
<totfact> 0.45299553E+04</totfact>
</mgrwt>
</event>
<event>
12    1  0.2791583E-001  0.2194430E+03  0.7546771E-02  0.1134324E+00
         21   -1    0    0  502  503  0.00000000000E+00  0.00000000000E+00  0.86505802402E+03  0.86505802402E+03  0.00000000000E+00 0. -1.
         21   -1    0    0  503  504 -0.00000000000E+00 -0.00000000000E+00 -0.75848058543E+02  0.75848058543E+02  0.00000000000E+00 0. -1.
         -6    2    1    2    0  504 -0.32477937314E+02  0.13076203174E+03  0.15182020007E+03  0.26684191502E+03  0.17321001444E+03 0.  0.
        -24    2    3    3    0    0 -0.80212890405E+02  0.51029662440E+02  0.74669269206E+02  0.14596911992E+03  0.81812896114E+02 0.  0.
          6    2    1    2  502    0  0.32477937314E+02 -0.13076203174E+03  0.63738976541E+03  0.67406416755E+03  0.17304121927E+03 0.  0.
         24    2    5    5    0    0  0.26149902571E+02 -0.83905642464E+02  0.60633822535E+03  0.61730279530E+03  0.75450137948E+02 0.  0.
          2    1    6    6  501    0  0.22291799008E+02 -0.87906545342E+02  0.37186548865E+03  0.38276419199E+03  0.00000000000E+00 0. -1.
         -1    1    6    6    0  501  0.38581035633E+01  0.40009028781E+01  0.23447273670E+03  0.23453860331E+03  0.00000000000E+00 0.  1.
          5    1    5    5  502    0  0.63280347431E+01 -0.46856389280E+02  0.31051540061E+02  0.56761372255E+02  0.47000000000E+01 0. -1.
         13    1    4    4    0    0 -0.17001115276E+02  0.40047074581E+02 -0.48708866374E+01  0.43778209645E+02  0.00000000000E+00 0. -1.
        -14    1    4    4    0    0 -0.63211775129E+02  0.10982587859E+02  0.79540155844E+02  0.10219091027E+03  0.00000000000E+00 0.  1.
         -5    1    3    3    0  504  0.47734953091E+02  0.79732369304E+02  0.77150930861E+02  0.12087279510E+03  0.47000000000E+01 0.  1.
<mgrwt>
<rscale>  2 0.21940970E+03</rscale>
<asrwt>0</asrwt>
<pdfrwt beam="1">  1       21 0.13308584E+00 0.21944301E+03</pdfrwt>
<pdfrwt beam="2">  1       21 0.11668933E-01 0.21944301E+03</pdfrwt>
<totfact> 0.24722886E+04</totfact>
</mgrwt>
</event>
<event>
12    1  0.2791583E-001  0.1937329E+03  0.7546771E-02  0.1155455E+00
         21   -1    0    0  502  503  0.00000000000E+00  0.00000000000E+00  0.15969430365E+03  0.15969430365E+03  0.00000000000E+00 0. -1.
         21   -1    0    0  503  504 -0.00000000000E+00 -0.00000000000E+00 -0.25050507938E+03  0.25050507938E+03  0.00000000000E+00 0. -1.
         -6    2    1    2    0  504 -0.57964832698E+02 -0.60411529109E+02 -0.99344923334E+02  0.21771962265E+03  0.17470817272E+03 0.  0.
        -24    2    3    3    0    0  0.29017420280E+02 -0.66811971015E+02 -0.56897325491E+02  0.12060748874E+03  0.77479097453E+02 0.  0.
          6    2    1    2  502    0  0.57964832698E+02  0.60411529109E+02  0.85341476009E+01  0.19247976038E+03  0.17310734185E+03 0.  0.
         24    2    5    5    0    0 -0.24532745321E+02 -0.32356225415E+01  0.12743031099E+02  0.88092907796E+02  0.83580205289E+02 0.  0.
          2    1    6    6  501    0  0.64336456701E+01 -0.24434677987E+02  0.35970845407E+02  0.43958469084E+02  0.00000000000E+00 0. -1.
         -1    1    6    6    0  501 -0.30966390991E+02  0.21199055446E+02 -0.23227814308E+02  0.44134438711E+02  0.00000000000E+00 0.  1.
          5    1    5    5  502    0  0.82497578019E+02  0.63647151651E+02 -0.42088834976E+01  0.10438685259E+03  0.47000000000E+01 0. -1.
         11    1    4    4    0    0 -0.58129103432E+01 -0.55513321848E+01 -0.49047383174E+02  0.49701639931E+02  0.00000000000E+00 0. -1.
        -12    1    4    4    0    0  0.34830330623E+02 -0.61260638831E+02 -0.78499423174E+01  0.70905848811E+02  0.00000000000E+00 0.  1.
         -5    1    3    3    0  504 -0.86982252979E+02  0.64004419060E+01 -0.42447597843E+02  0.97112133909E+02  0.47000000000E+01 0.  1.
<mgrwt>
<rscale>  2 0.19337125E+03</rscale>
<asrwt>0</asrwt>
<pdfrwt beam="1">  1       21 0.24568354E-01 0.19373286E+03</pdfrwt>
<pdfrwt beam="2">  1       21 0.38539243E-01 0.19373286E+03</pdfrwt>
<totfact> 0.10162288E+05</totfact>
</mgrwt>
</event>
<event>
12    1  0.2791583E-001  0.2591794E+03  0.7546771E-02  0.1108195E+00
         21   -1    0    0  502  503  0.00000000000E+00  0.00000000000E+00  0.32776450352E+03  0.32776450352E+03  0.00000000000E+00 0. -1.
         21   -1    0    0  503  504 -0.00000000000E+00 -0.00000000000E+00 -0.21059348029E+03  0.21059348029E+03  0.00000000000E+00 0. -1.
         -6    2    1    2    0  504  0.17416604589E+03  0.66437644144E+02  0.47817990018E+01  0.25922353304E+03  0.18007276967E+03 0.  0.
        -24    2    3    3    0    0  0.30234464371E+02  0.75996825045E+02  0.92252538333E+01  0.11482993072E+03  0.80069766004E+02 0.  0.
          6    2    1    2  502    0 -0.17416604589E+03 -0.66437644144E+02  0.11238922423E+03  0.27913445077E+03  0.17474819536E+03 0.  0.
         24    2    5    5    0    0 -0.13824117039E+03 -0.60778965511E+01  0.13000663523E+03  0.20656476716E+03  0.81361635978E+02 0.  0.
          2    1    6    6  501    0 -0.96354226105E+02 -0.31790386266E+02  0.51103888125E+02  0.11360621871E+03  0.00000000000E+00 0. -1.
         -1    1    6    6    0  501 -0.41886944283E+02  0.25712489715E+02  0.78902747109E+02  0.92958548451E+02  0.00000000000E+00 0.  1.
          5    1    5    5  502    0 -0.35924875506E+02 -0.60359747593E+02 -0.17617411000E+02  0.72569683615E+02  0.47000000000E+01 0. -1.
         11    1    4    4    0    0  0.46900815736E+02  0.83818417471E+02  0.76390501214E+01  0.96351277681E+02  0.00000000000E+00 0. -1.
        -12    1    4    4    0    0 -0.16666351365E+02 -0.78215924259E+01  0.15862037119E+01  0.18478653038E+02  0.00000000000E+00 0.  1.
         -5    1    3    3    0  504  0.14393158152E+03 -0.95591809013E+01 -0.44434548315E+01  0.14439360232E+03  0.47000000000E+01 0.  1.
<mgrwt>
<rscale>  2 0.25825683E+03</rscale>
<asrwt>0</asrwt>
<pdfrwt beam="1">  1       21 0.50425308E-01 0.25917943E+03</pdfrwt>
<pdfrwt beam="2">  1       21 0.32398997E-01 0.25917943E+03</pdfrwt>
<totfact> 0.33237445E+04</totfact>
</mgrwt>
</event>
<event>
12    1  0.2791583E-001  0.2358350E+03  0.7546771E-02  0.1122835E+00
         21   -1    0    0  502  503  0.00000000000E+00  0.00000000000E+00  0.71668449845E+03  0.71668449845E+03  0.00000000000E+00 0. -1.
         21   -1    0    0  503  504 -0.00000000000E+00 -0.00000000000E+00 -0.18180545378E+03  0.18180545378E+03  0.00000000000E+00 0. -1.
         -6    2    1    2    0  504  0.13370403834E+03  0.85717808208E+02 -0.73073517694E+02  0.24689652804E+03  0.17433830347E+03 0.  0.
        -24    2    3    3    0    0  0.12684919576E+03  0.68782349145E+02  0.62667015804E+01  0.16534434207E+03  0.80484469863E+02 0.  0.
          6    2    1    2  502    0 -0.13370403834E+03 -0.85717808208E+02  0.60795256236E+03  0.65159342420E+03  0.17246263324E+03 0.  0.
         24    2    5    5    0    0 -0.15480864997E+03 -0.56623012865E+02  0.39343514049E+03  0.43403486649E+03  0.80144693284E+02 0.  0.
          4    1    6    6  501    0 -0.10015351090E+03 -0.66292456586E+02  0.20497526410E+03  0.23757161960E+03  0.00000000000E+00 0. -1.
         -3    1    6    6    0  501 -0.54655139069E+02  0.96694437207E+01  0.18845987639E+03  0.19646324689E+03  0.00000000000E+00 0.  1.
          5    1    5    5  502    0  0.21104611627E+02 -0.29094795343E+02  0.21451742187E+03  0.21755855771E+03  0.47000000000E+01 0. -1.
         11    1    4    4    0    0  0.10192028335E+03  0.86964384178E+02  0.95242813221E+01  0.13431775835E+03  0.00000000000E+00 0. -1.
        -12    1    4    4    0    0  0.24928912403E+02 -0.18182035034E+02 -0.32575797417E+01  0.31026583720E+02  0.00000000000E+00 0.  1.
         -5    1    3    3    0  504  0.68548425814E+01  0.16935459064E+02 -0.79340219274E+02  0.81552185961E+02  0.47000000000E+01 0.  1.
<mgrwt>
<rscale>  2 0.23548847E+03</rscale>
<asrwt>0</asrwt>
<pdfrwt beam="1">  1       21 0.11025915E+00 0.23583502E+03</pdfrwt>
<pdfrwt beam="2">  1       21 0.27970070E-01 0.23583502E+03</pdfrwt>
<totfact> 0.76935017E+03</totfact>
</mgrwt>
</event>
<event>
12    1  0.2791583E-001  0.2442269E+03  0.7546771E-02  0.1118518E+00
         21   -1    0    0  502  503  0.00000000000E+00  0.00000000000E+00  0.95952579862E+03  0.95952579862E+03  0.00000000000E+00 0. -1.
         21   -1    0    0  503  504 -0.00000000000E+00 -0.00000000000E+00 -0.80013469804E+02  0.80013469804E+02  0.00000000000E+00 0. -1.
         -6    2    1    2    0  504  0.91419006466E+02  0.13090056256E+03  0.18524726800E+03  0.30653440042E+03  0.18480908072E+03 0.  0.
        -24    2    3    3    0    0  0.97988456334E+02  0.26361837384E+02  0.14450155863E+03  0.19404526510E+03  0.80474719117E+02 0.  0.
          6    2    1    2  502    0 -0.91419006466E+02 -0.13090056256E+03  0.69426506081E+03  0.73300486800E+03  0.17262609833E+03 0.  0.
         24    2    5    5    0    0 -0.12772427689E+03 -0.77275888148E+02  0.52190928986E+03  0.54882484696E+03  0.80835338890E+02 0.  0.
          2    1    6    6  501    0 -0.95137476273E+02 -0.20575474925E+02  0.23127278934E+03  0.25092148702E+03  0.00000000000E+00 0. -1.
         -1    1    6    6    0  501 -0.32586800614E+02 -0.56700413222E+02  0.29063650051E+03  0.29790335994E+03  0.00000000000E+00 0.  1.
          5    1    5    5  502    0  0.36305270421E+02 -0.53624674414E+02  0.17235577096E+03  0.18418002103E+03  0.47000000000E+01 0. -1.
         13    1    4    4    0    0  0.64955584072E+02  0.54307089859E+02  0.10936061348E+03  0.13830485058E+03  0.00000000000E+00 0. -1.
        -14    1    4    4    0    0  0.33032872262E+02 -0.27945252475E+02  0.35140945143E+02  0.55740414524E+02  0.00000000000E+00 0.  1.
         -5    1    3    3    0  504 -0.65694498685E+01  0.10453872518E+03  0.40745709377E+02  0.11248913532E+03  0.47000000000E+01 0.  1.
<mgrwt>
<rscale>  2 0.24192352E+03</rscale>
<asrwt>0</asrwt>
<pdfrwt beam="1">  1       21 0.14761935E+00 0.24422692E+03</pdfrwt>
<pdfrwt beam="2">  1       21 0.12309765E-01 0.24422692E+03</pdfrwt>
<totfact> 0.16914673E+04</totfact>
</mgrwt>
</event>
<event>
12    1  0.2791583E-001  0.2164816E+03  0.7546771E-02  0.1136699E+00
         21   -1    0    0  502  503  0.00000000000E+00  0.00000000000E+00  0.43035976224E+03  0.43035976224E+03  0.00000000000E+00 0.  1.
         21   -1    0    0  503  504 -0.00000000000E+00 -0.00000000000E+00 -0.21335353023E+03  0.21335353023E+03  0.00000000000E+00 0.  1.
         -6    2    1    2    0  504  0.12906296897E+03 -0.12981231732E+02 -0.11728386739E+03  0.24544936580E+03  0.17223275903E+03 0.  0.
        -24    2    3    3    0    0  0.15450633732E+03 -0.36029702625E+02 -0.79649422701E+02  0.19429236794E+03  0.78962940401E+02 0.  0.
          6    2    1    2  502    0 -0.12906296897E+03  0.12981231732E+02  0.33429009941E+03  0.39826392666E+03  0.17331624962E+03 0.  0.
         24    2    5    5    0    0 -0.11682005374E+03 -0.28956479095E+02  0.32136210220E+03  0.35246126654E+03  0.80435943732E+02 0.  0.
          4    1    6    6  501    0 -0.75996571678E+02  0.14328806447E+02  0.23646610688E+03  0.24879110375E+03  0.00000000000E+00 0. -1.
         -3    1    6    6    0  501 -0.40823482062E+02 -0.43285285542E+02  0.84895995314E+02  0.10367016279E+03  0.00000000000E+00 0.  1.
          5    1    5    5  502    0 -0.12242915234E+02  0.41937710827E+02  0.12927997210E+02  0.45802660127E+02  0.47000000000E+01 0. -1.
         13    1    4    4    0    0  0.14244085792E+03 -0.39570088899E+01 -0.58587116294E+02  0.15406980924E+03  0.00000000000E+00 0. -1.
        -14    1    4    4    0    0  0.12065479405E+02 -0.32072693735E+02 -0.21062306407E+02  0.40222558694E+02  0.00000000000E+00 0.  1.
         -5    1    3    3    0  504 -0.25443368350E+02  0.23048470893E+02 -0.37634444694E+02  0.51156997868E+02  0.47000000000E+01 0.  1.
<mgrwt>
<rscale>  2 0.21626466E+03</rscale>
<asrwt>0</asrwt>
<pdfrwt beam="1">  1       21 0.66209194E-01 0.21648160E+03</pdfrwt>
<pdfrwt beam="2">  1       21 0.32823620E-01 0.21648160E+03</pdfrwt>
<totfact> 0.18440417E+04</totfact>
</mgrwt>
</event>
<event>
12    1  0.2791583E-001  0.2382943E+03  0.7546771E-02  0.1120951E+00
         21   -1    0    0  502  503  0.00000000000E+00  0.00000000000E+00  0.12559882050E+03  0.12559882050E+03  0.00000000000E+00 0. -1.
         21   -1    0    0  503  504 -0.00000000000E+00 -0.00000000000E+00 -0.56712806441E+03  0.56712806441E+03  0.00000000000E+00 0. -1.
         -6    2    1    2    0  504  0.76363369661E+02  0.14339740978E+03 -0.37683774620E+03  0.44580752494E+03  0.17419380292E+03 0.  0.
        -24    2    3    3    0    0  0.10718765247E+03  0.73538474353E+02 -0.30677519711E+03  0.34207104122E+03  0.77488551593E+02 0.  0.
          6    2    1    2  502    0 -0.76363369661E+02 -0.14339740978E+03 -0.64691497708E+02  0.24691935998E+03  0.17432727583E+03 0.  0.
         24    2    5    5    0    0 -0.30345101206E+02 -0.26781998195E+02 -0.79527254491E+02  0.12059032559E+03  0.81113142119E+02 0.  0.
          4    1    6    6  501    0 -0.53967076298E+02 -0.57858492097E+01 -0.30498854643E+02  0.62258344901E+02  0.00000000000E+00 0. -1.
         -3    1    6    6    0  501  0.23621975092E+02 -0.20996148985E+02 -0.49028399848E+02  0.58331980689E+02  0.00000000000E+00 0.  1.
          5    1    5    5  502    0 -0.46018268456E+02 -0.11661541158E+03  0.14835756782E+02  0.12632903439E+03  0.47000000000E+01 0. -1.
         13    1    4    4    0    0  0.62052091678E+02  0.57557174800E+02 -0.10588828219E+03  0.13555669942E+03  0.00000000000E+00 0. -1.
        -14    1    4    4    0    0  0.45135560791E+02  0.15981299553E+02 -0.20088691492E+03  0.20651434180E+03  0.00000000000E+00 0.  1.
         -5    1    3    3    0  504 -0.30824282808E+02  0.69858935424E+02 -0.70062549087E+02  0.10373648372E+03  0.47000000000E+01 0.  1.
<mgrwt>
<rscale>  2 0.23826990E+03</rscale>
<asrwt>0</asrwt>
<pdfrwt beam="1">  1       21 0.19322895E-01 0.23829431E+03</pdfrwt>
<pdfrwt beam="2">  1       21 0.87250473E-01 0.23829431E+03</pdfrwt>
<totfact> 0.27105102E+04</totfact>
</mgrwt>
</event>
<event>
12    1  0.2791583E-001  0.2374067E+03  0.7546771E-02  0.1121792E+00
         21   -1    0    0  502  503  0.00000000000E+00  0.00000000000E+00  0.15920535915E+03  0.15920535915E+03  0.00000000000E+00 0. -1.
         21   -1    0    0  503  504 -0.00000000000E+00 -0.00000000000E+00 -0.65617593372E+03  0.65617593372E+03  0.00000000000E+00 0. -1.
         -6    2    1    2    0  504 -0.14563510043E+03 -0.66327290046E+02  0.28777377945E+02  0.23914444037E+03  0.17536542987E+03 0.  0.
        -24    2    3    3    0    0 -0.13619192166E+03  0.30586355952E+00  0.53207098327E+02  0.16739451338E+03  0.81495979776E+02 0.  0.
          6    2    1    2  502    0  0.14563510043E+03  0.66327290046E+02 -0.52574795251E+03  0.57623685250E+03  0.17328909004E+03 0.  0.
         24    2    5    5    0    0  0.13645678513E+03  0.78605596756E+02 -0.53078001492E+03  0.55943179554E+03  0.80232260160E+02 0.  0.
          2    1    6    6  501    0  0.10773283614E+03  0.92735152632E+02 -0.39112268313E+03  0.41615276735E+03  0.00000000000E+00 0. -1.
         -1    1    6    6    0  501  0.28723948988E+02 -0.14129555876E+02 -0.13965733179E+03  0.14327902819E+03  0.00000000000E+00 0.  1.
          5    1    5    5  502    0  0.91783152989E+01 -0.12278306710E+02  0.50320624080E+01  0.16805056961E+02  0.47000000000E+01 0. -1.
         11    1    4    4    0    0 -0.92419621889E+02 -0.15958317193E+02 -0.36023250084E+01  0.93856439007E+02  0.00000000000E+00 0. -1.
        -12    1    4    4    0    0 -0.43772299769E+02  0.16264180752E+02  0.56809423335E+02  0.73538074371E+02  0.00000000000E+00 0.  1.
         -5    1    3    3    0  504 -0.94431787708E+01 -0.66633153605E+02 -0.24429720382E+02  0.71749926987E+02  0.47000000000E+01 0.  1.
<mgrwt>
<rscale>  2 0.23702335E+03</rscale>
<asrwt>0</asrwt>
<pdfrwt beam="1">  1       21 0.24493132E-01 0.23740667E+03</pdfrwt>
<pdfrwt beam="2">  1       21 0.10095015E+00 0.23740667E+03</pdfrwt>
<totfact> 0.12288558E+04</totfact>
</mgrwt>
</event>
<event>
12    1  0.2791583E-001  0.2292735E+03  0.7546771E-02  0.1127243E+00
         21   -1    0    0  502  503  0.00000000000E+00  0.00000000000E+00  0.30342051123E+03  0.30342051123E+03  0.00000000000E+00 0. -1.
         21   -1    0    0  503  504 -0.00000000000E+00 -0.00000000000E+00 -0.43171185964E+03  0.43171185964E+03  0.00000000000E+00 0. -1.
         -6    2    1    2    0  504 -0.13031580821E+03 -0.75234040177E+02 -0.34879410675E+03  0.41740108251E+03  0.17298544478E+03 0.  0.
        -24    2    3    3    0    0 -0.12472889863E+03 -0.20544094679E+02 -0.14933084763E+03  0.21044725811E+03  0.77517665147E+02 0.  0.
          6    2    1    2  502    0  0.13031580821E+03  0.75234040177E+02  0.22050275834E+03  0.31773128836E+03  0.17230593285E+03 0.  0.
         24    2    5    5    0    0 -0.34864676290E+01  0.42810280118E+02  0.98122572222E+02  0.13346694240E+03  0.79627319398E+02 0.  0.
          4    1    6    6  501    0  0.19688870662E+01  0.64091366565E+02  0.52657613278E+02  0.82972308757E+02  0.00000000000E+00 0. -1.
         -3    1    6    6    0  501 -0.54553546951E+01 -0.21281086446E+02  0.45464958944E+02  0.50494633645E+02  0.00000000000E+00 0.  1.
          5    1    5    5  502    0  0.13380227584E+03  0.32423760059E+02  0.12238018612E+03  0.18426434596E+03  0.47000000000E+01 0. -1.
         13    1    4    4    0    0 -0.75309561475E+02 -0.10614989985E+02 -0.31559493936E+02  0.82342028876E+02  0.00000000000E+00 0. -1.
        -14    1    4    4    0    0 -0.49419337160E+02 -0.99291046936E+01 -0.11777135369E+03  0.12810522923E+03  0.00000000000E+00 0.  1.
         -5    1    3    3    0  504 -0.55869095800E+01 -0.54689945498E+02 -0.19946325912E+03  0.20695382441E+03  0.47000000000E+01 0.  1.
<mgrwt>
<rscale>  2 0.22914532E+03</rscale>
<asrwt>0</asrwt>
<pdfrwt beam="1">  1       21 0.46680079E-01 0.22927349E+03</pdfrwt>
<pdfrwt beam="2">  1       21 0.66417209E-01 0.22927349E+03</pdfrwt>
<totfact> 0.89162785E+03</totfact>
</mgrwt>
</event>
<event>
12    1  0.2791583E-001  0.2077338E+03  0.7546771E-02  0.1143477E+00
         21   -1    0    0  502  503  0.00000000000E+00  0.00000000000E+00  0.81981830315E+02  0.81981830315E+02  0.00000000000E+00 0.  1.
         21   -1    0    0  503  504 -0.00000000000E+00 -0.00000000000E+00 -0.56923149004E+03  0.56923149004E+03  0.00000000000E+00 0.  1.
         -6    2    1    2    0  504 -0.59262464278E+02 -0.96898565437E+02 -0.33459679734E+03  0.39383797757E+03  0.17393091770E+03 0.  0.
        -24    2    3    3    0    0 -0.11803992025E+02 -0.21438049065E+02 -0.54345718000E+02  0.99713253023E+02  0.79939674681E+02 0.  0.
          6    2    1    2  502    0  0.59262464278E+02  0.96898565437E+02 -0.15265286238E+03  0.25737534278E+03  0.17331416278E+03 0.  0.
         24    2    5    5    0    0  0.81503742614E+02  0.12155396394E+03 -0.98066279227E+02  0.19331015568E+03  0.79583886290E+02 0.  0.
          2    1    6    6  501    0  0.30835422447E+02  0.10752988244E+03 -0.51788324017E+02  0.12327014805E+03  0.00000000000E+00 0. -1.
         -1    1    6    6    0  501  0.50668320168E+02  0.14024081502E+02 -0.46277955211E+02  0.70040007632E+02  0.00000000000E+00 0.  1.
          5    1    5    5  502    0 -0.22241278337E+02 -0.24655398506E+02 -0.54586583152E+02  0.64065187097E+02  0.47000000000E+01 0. -1.
         13    1    4    4    0    0  0.33386996242E+02 -0.84437796960E+01 -0.34272249702E+02  0.48585759573E+02  0.00000000000E+00 0. -1.
        -14    1    4    4    0    0 -0.45190988267E+02 -0.12994269369E+02 -0.20073468297E+02  0.51127493450E+02  0.00000000000E+00 0.  1.
         -5    1    3    3    0  504 -0.47458472253E+02 -0.75460516373E+02 -0.28025107934E+03  0.29412472455E+03  0.47000000000E+01 0.  1.
<mgrwt>
<rscale>  2 0.20760466E+03</rscale>
<asrwt>0</asrwt>
<pdfrwt beam="1">  1       21 0.12612589E-01 0.20773381E+03</pdfrwt>
<pdfrwt beam="2">  1       21 0.87574076E-01 0.20773381E+03</pdfrwt>
<totfact> 0.59623909E+04</totfact>
</mgrwt>
</event>
<event>
12    1  0.2791583E-001  0.2151658E+03  0.7546771E-02  0.1138186E+00
         21   -1    0    0  502  503  0.00000000000E+00  0.00000000000E+00  0.53364691302E+03  0.53364691302E+03  0.00000000000E+00 0. -1.
         21   -1    0    0  503  504 -0.00000000000E+00 -0.00000000000E+00 -0.10715811253E+03  0.10715811253E+03  0.00000000000E+00 0. -1.
         -6    2    1    2    0  504  0.26142811053E+02  0.13023079035E+03  0.67582082410E+02  0.22234314564E+03  0.16500191279E+03 0.  0.
        -24    2    3    3    0    0  0.73316130029E+02  0.10330667989E+03  0.73748164981E+02  0.16747657730E+03  0.81006710046E+02 0.  0.
          6    2    1    2  502    0 -0.26142811053E+02 -0.13023079035E+03  0.35890671807E+03  0.41846187991E+03  0.16927140142E+03 0.  0.
         24    2    5    5    0    0  0.21394489535E+02 -0.13622527945E+03  0.32227337973E+03  0.35796543105E+03  0.72553894449E+02 0.  0.
          2    1    6    6  501    0  0.43924669882E+01 -0.12092334836E+03  0.20146328089E+03  0.23500894343E+03  0.00000000000E+00 0. -1.
         -1    1    6    6    0  501  0.17002022547E+02 -0.15301931090E+02  0.12081009884E+03  0.12295648762E+03  0.00000000000E+00 0.  1.
          5    1    5    5  502    0 -0.47537300589E+02  0.59944891070E+01  0.36633338347E+02  0.60496448865E+02  0.47000000000E+01 0. -1.
         13    1    4    4    0    0 -0.17170708279E+02  0.25240813993E+02  0.19567044556E+02  0.36260186796E+02  0.00000000000E+00 0. -1.
        -14    1    4    4    0    0  0.90486838308E+02  0.78065865897E+02  0.54181120426E+02  0.13121639050E+03  0.00000000000E+00 0.  1.
         -5    1    3    3    0  504 -0.47173318976E+02  0.26924110457E+02 -0.61660825717E+01  0.54866568340E+02  0.47000000000E+01 0.  1.
<mgrwt>
<rscale>  2 0.21432526E+03</rscale>
<asrwt>0</asrwt>
<pdfrwt beam="1">  1       21 0.82099524E-01 0.21516578E+03</pdfrwt>
<pdfrwt beam="2">  1       21 0.16485864E-01 0.21516578E+03</pdfrwt>
<totfact> 0.42320602E+04</totfact>
</mgrwt>
</event>
<event>
12    1  0.2791583E-001  0.2180641E+03  0.7546771E-02  0.1137017E+00
         21   -1    0    0  502  503  0.00000000000E+00  0.00000000000E+00  0.33852753399E+03  0.33852753399E+03  0.00000000000E+00 0.  1.
         21   -1    0    0  503  504 -0.00000000000E+00 -0.00000000000E+00 -0.13743863251E+03  0.13743863251E+03  0.00000000000E+00 0. -1.
         -6    2    1    2    0  504 -0.44735399032E+02 -0.10849659898E+03  0.13490729617E+03  0.25642138185E+03  0.18379112763E+03 0.  0.
        -24    2    3    3    0    0 -0.85161829992E+02 -0.12555473744E+03  0.92794467824E+02  0.19542255629E+03  0.81010078800E+02 0.  0.
          6    2    1    2  502    0  0.44735399032E+02  0.10849659898E+03  0.66181605308E+02  0.21954478466E+03  0.17334110785E+03 0.  0.
         24    2    5    5    0    0  0.26017120538E+02 -0.12386565397E+02  0.41947083345E+02  0.94754899513E+02  0.79928815938E+02 0.  0.
          4    1    6    6  501    0 -0.23166201841E+02  0.12765758488E+02  0.18892561153E+01  0.26518046425E+02  0.00000000000E+00 0. -1.
         -3    1    6    6    0  501  0.49183322379E+02 -0.25152323885E+02  0.40057827230E+02  0.68236853089E+02  0.00000000000E+00 0.  1.
          5    1    5    5  502    0  0.18718278494E+02  0.12088316438E+03  0.24234521962E+02  0.12478988514E+03  0.47000000000E+01 0. -1.
         11    1    4    4    0    0  0.42093664676E+01 -0.61677957991E+02  0.27809650288E+02  0.67788390726E+02  0.00000000000E+00 0. -1.
        -12    1    4    4    0    0 -0.89371196460E+02 -0.63876779453E+02  0.64984817536E+02  0.12763416557E+03  0.00000000000E+00 0.  1.
         -5    1    3    3    0  504  0.40426430961E+02  0.17058138466E+02  0.42112828349E+02  0.60998825560E+02  0.47000000000E+01 0.  1.
<mgrwt>
<rscale>  2 0.21584751E+03</rscale>
<asrwt>0</asrwt>
<pdfrwt beam="1">  1       21 0.52081159E-01 0.21806409E+03</pdfrwt>
<pdfrwt beam="2">  1       21 0.21144405E-01 0.21806409E+03</pdfrwt>
<totfact> 0.71973580E+04</totfact>
</mgrwt>
</event>
<event>
12    1  0.2791583E-001  0.3538973E+03  0.7546771E-02  0.1061561E+00
         21   -1    0    0  502  503  0.00000000000E+00  0.00000000000E+00  0.21697413528E+03  0.21697413528E+03  0.00000000000E+00 0.  1.
         21   -1    0    0  503  504 -0.00000000000E+00 -0.00000000000E+00 -0.56981423653E+03  0.56981423653E+03  0.00000000000E+00 0. -1.
         -6    2    1    2    0  504  0.24785318327E+03  0.17344220394E+03 -0.19234474480E+03  0.39819851829E+03  0.17335558991E+03 0.  0.
        -24    2    3    3    0    0  0.13805928659E+03  0.61228700280E+02 -0.31048608569E+02  0.17306499410E+03  0.78601245138E+02 0.  0.
          6    2    1    2  502    0 -0.24785318327E+03 -0.17344220394E+03 -0.16049535645E+03  0.38858985352E+03  0.18365706155E+03 0.  0.
         24    2    5    5    0    0 -0.75913771987E+02 -0.11742391160E+03 -0.12575882513E+03  0.20438907492E+03  0.80052083406E+02 0.  0.
          2    1    6    6  501    0  0.17042770429E+02 -0.22791025064E+02 -0.23100874045E+02  0.36654293459E+02  0.00000000000E+00 0. -1.
         -1    1    6    6    0  501 -0.92956542416E+02 -0.94632886535E+02 -0.10265795108E+03  0.16773478146E+03  0.00000000000E+00 0.  1.
          5    1    5    5  502    0 -0.17193941128E+03 -0.56018292340E+02 -0.34736531321E+02  0.18420077860E+03  0.47000000000E+01 0. -1.
         13    1    4    4    0    0  0.11237910862E+03  0.28278808541E+02 -0.51192974229E+02  0.12668652524E+03  0.00000000000E+00 0. -1.
        -14    1    4    4    0    0  0.25680177972E+02  0.32949891739E+02  0.20144365660E+02  0.46378468864E+02  0.00000000000E+00 0.  1.
         -5    1    3    3    0  504  0.10979389668E+03  0.11221350366E+03 -0.16129613623E+03  0.22513352419E+03  0.47000000000E+01 0.  1.
<mgrwt>
<rscale>  2 0.35258130E+03</rscale>
<asrwt>0</asrwt>
<pdfrwt beam="1">  1       21 0.33380636E-01 0.35389732E+03</pdfrwt>
<pdfrwt beam="2">  1       21 0.87663728E-01 0.35389732E+03</pdfrwt>
<totfact> 0.88605868E+03</totfact>
</mgrwt>
</event>
<event>
12    1  0.2791583E-001  0.1957115E+03  0.7546771E-02  0.1153900E+00
         21   -1    0    0  502  503  0.00000000000E+00  0.00000000000E+00  0.10819817492E+03  0.10819817492E+03  0.00000000000E+00 0. -1.
         21   -1    0    0  503  504 -0.00000000000E+00 -0.00000000000E+00 -0.47159652069E+03  0.47159652069E+03  0.00000000000E+00 0. -1.
         -6    2    1    2    0  504  0.78155257538E+02  0.38680679297E+02 -0.33682790271E+02  0.19636887842E+03  0.17268979940E+03 0.  0.
        -24    2    3    3    0    0  0.82195376618E+02  0.69601771941E+02  0.15315832203E+02  0.13809889011E+03  0.85066104529E+02 0.  0.
          6    2    1    2  502    0 -0.78155257538E+02 -0.38680679297E+02 -0.32971555550E+03  0.38342581719E+03  0.17521007538E+03 0.  0.
         24    2    5    5    0    0 -0.61889838898E+02  0.19631216917E+01 -0.76801789554E+02  0.12670817968E+03  0.79512526772E+02 0.  0.
          4    1    6    6  501    0 -0.30746753859E+02 -0.35718105760E+02 -0.18515982283E+02  0.50635832686E+02  0.00000000000E+00 0. -1.
         -3    1    6    6    0  501 -0.31143085039E+02  0.37681227452E+02 -0.58285807271E+02  0.76072346995E+02  0.00000000000E+00 0.  1.
          5    1    5    5  502    0 -0.16265418639E+02 -0.40643800988E+02 -0.25291376595E+03  0.25671763751E+03  0.47000000000E+01 0. -1.
         11    1    4    4    0    0  0.65061975370E+01  0.44894292510E+02 -0.21710391333E+02  0.50290846067E+02  0.00000000000E+00 0. -1.
        -12    1    4    4    0    0  0.75689179081E+02  0.24707479431E+02  0.37026223536E+02  0.87808044046E+02  0.00000000000E+00 0.  1.
         -5    1    3    3    0  504 -0.40401190805E+01 -0.30921092644E+02 -0.48998622474E+02  0.58269988303E+02  0.47000000000E+01 0.  1.
<mgrwt>
<rscale>  2 0.19514585E+03</rscale>
<asrwt>0</asrwt>
<pdfrwt beam="1">  1       21 0.16645873E-01 0.19571155E+03</pdfrwt>
<pdfrwt beam="2">  1       21 0.72553311E-01 0.19571155E+03</pdfrwt>
<totfact> 0.55427757E+04</totfact>
</mgrwt>
</event>
<event>
12    1  0.2791583E-001  0.2511896E+03  0.7546771E-02  0.1112920E+00
         21   -1    0    0  502  503  0.00000000000E+00  0.00000000000E+00  0.33289344986E+04  0.33289344986E+04  0.00000000000E+00 0.  1.
         21   -1    0    0  503  504 -0.00000000000E+00 -0.00000000000E+00 -0.39205400968E+02  0.39205400968E+02  0.00000000000E+00 0.  1.
         -6    2    1    2    0  504 -0.76026340907E+02 -0.16574013324E+03  0.42567437091E+03  0.49309108475E+03  0.16938226452E+03 0.  0.
        -24    2    3    3    0    0 -0.25471705755E+02 -0.21440622622E+02  0.22195726552E+03  0.23833459528E+03  0.80186304927E+02 0.  0.
          6    2    1    2  502    0  0.76026340907E+02  0.16574013324E+03  0.28640547267E+04  0.28750488148E+04  0.17276114622E+03 0.  0.
         24    2    5    5    0    0  0.68663133728E+02  0.67289829775E+02  0.10486236285E+04  0.10569292254E+04  0.90803778046E+02 0.  0.
          2    1    6    6  501    0  0.52227535794E+02 -0.83603933212E+01  0.34001353685E+03  0.34410291617E+03  0.00000000000E+00 0. -1.
         -1    1    6    6    0  501  0.16435597934E+02  0.75650223097E+02  0.70861009164E+03  0.71282630922E+03  0.00000000000E+00 0.  1.
          5    1    5    5  502    0  0.73632071793E+01  0.98450303461E+02  0.18154310982E+04  0.18181195894E+04  0.47000000000E+01 0. -1.
         13    1    4    4    0    0  0.24304329975E+02  0.51542320605E+01  0.34150618250E+02  0.42231875291E+02  0.00000000000E+00 0. -1.
        -14    1    4    4    0    0 -0.49776035730E+02 -0.26594854683E+02  0.18780664727E+03  0.19610271999E+03  0.00000000000E+00 0.  1.
         -5    1    3    3    0  504 -0.50554635152E+02 -0.14429951061E+03  0.20371710539E+03  0.25475648947E+03  0.47000000000E+01 0.  1.
<mgrwt>
<rscale>  2 0.25060963E+03</rscale>
<asrwt>0</asrwt>
<pdfrwt beam="1">  1       21 0.51214355E+00 0.25118959E+03</pdfrwt>
<pdfrwt beam="2">  1       21 0.60316028E-02 0.25118959E+03</pdfrwt>
<totfact> 0.27775968E+02</totfact>
</mgrwt>
</event>
<event>
12    1  0.2791583E-001  0.1792853E+03  0.7546771E-02  0.1169852E+00
         21   -1    0    0  502  503  0.00000000000E+00  0.00000000000E+00  0.10706437509E+04  0.10706437509E+04  0.00000000000E+00 0.  1.
         21   -1    0    0  503  504 -0.00000000000E+00 -0.00000000000E+00 -0.29174433056E+02  0.29174433056E+02  0.00000000000E+00 0.  1.
         -6    2    1    2    0  504 -0.13788367019E+02 -0.38372937069E+02  0.53815383351E+03  0.56552455243E+03  0.16895522931E+03 0.  0.
        -24    2    3    3    0    0 -0.20385615740E+02 -0.57890503538E+02  0.53189284016E+03  0.54348483534E+03  0.93267835291E+02 0.  0.
          6    2    1    2  502    0  0.13788367019E+02  0.38372937069E+02  0.50331548433E+03  0.53429363153E+03  0.17458695988E+03 0.  0.
         24    2    5    5    0    0  0.32720874796E+02  0.78347465536E+02  0.44936984251E+03  0.46437492839E+03  0.80633973964E+02 0.  0.
          4    1    6    6  501    0  0.90937053530E+01  0.38277278049E+02  0.57011664512E+02  0.69268863008E+02  0.00000000000E+00 0. -1.
         -3    1    6    6    0  501  0.23627169443E+02  0.40070187487E+02  0.39235817799E+03  0.39510606538E+03  0.00000000000E+00 0.  1.
          5    1    5    5  502    0 -0.18932507777E+02 -0.39974528467E+02  0.53945641824E+02  0.69918703139E+02  0.47000000000E+01 0. -1.
         11    1    4    4    0    0 -0.31216104443E+02 -0.16088504644E+02  0.44568540831E+03  0.44706684996E+03  0.00000000000E+00 0. -1.
        -12    1    4    4    0    0  0.10830488703E+02 -0.41801998894E+02  0.86207431855E+02  0.96417985377E+02  0.00000000000E+00 0.  1.
         -5    1    3    3    0  504  0.65972487216E+01  0.19517566468E+02  0.62609933485E+01  0.22039717086E+02  0.47000000000E+01 0.  1.
<mgrwt>
<rscale>  2 0.17789943E+03</rscale>
<asrwt>0</asrwt>
<pdfrwt beam="1">  1       21 0.16471439E+00 0.17928527E+03</pdfrwt>
<pdfrwt beam="2">  1       21 0.44883751E-02 0.17928527E+03</pdfrwt>
<totfact> 0.75652775E+04</totfact>
</mgrwt>
</event>
<event>
12    1  0.2791583E-001  0.1864625E+03  0.7546771E-02  0.1162126E+00
         21   -1    0    0  502  503  0.00000000000E+00  0.00000000000E+00  0.31144808652E+03  0.31144808652E+03  0.00000000000E+00 0.  1.
         21   -1    0    0  503  504 -0.00000000000E+00 -0.00000000000E+00 -0.25672037927E+03  0.25672037927E+03  0.00000000000E+00 0.  1.
         -6    2    1    2    0  504 -0.17994677184E+02 -0.65247318563E+02 -0.18708119434E+03  0.26281652913E+03  0.17173273922E+03 0.  0.
        -24    2    3    3    0    0 -0.42823035015E+02 -0.64920108270E+02 -0.20384297543E+03  0.23249159344E+03  0.80324028795E+02 0.  0.
          6    2    1    2  502    0  0.17994677184E+02  0.65247318563E+02  0.24180890159E+03  0.30535193667E+03  0.17374475345E+03 0.  0.
         24    2    5    5    0    0  0.53590517227E+02  0.80465784799E+02  0.10835866196E+03  0.16632056611E+03  0.81081718213E+02 0.  0.
          4    1    6    6  501    0 -0.15601826966E+02 -0.36866362775E+01  0.69189616169E+01  0.17460822477E+02  0.00000000000E+00 0. -1.
         -3    1    6    6    0  501  0.69192344193E+02  0.84152421077E+02  0.10143970035E+03  0.14885974363E+03  0.00000000000E+00 0.  1.
          5    1    5    5  502    0 -0.35595840044E+02 -0.15218466237E+02  0.13345023962E+03  0.13903137056E+03  0.47000000000E+01 0. -1.
         13    1    4    4    0    0 -0.56960101660E+02 -0.25835094238E+02 -0.78100392966E+02  0.10005786654E+03  0.00000000000E+00 0. -1.
        -14    1    4    4    0    0  0.14137066645E+02 -0.39085014032E+02 -0.12574258246E+03  0.13243372690E+03  0.00000000000E+00 0.  1.
         -5    1    3    3    0  504  0.24828357831E+02 -0.32721029262E+00  0.16761781091E+02  0.30324935689E+02  0.47000000000E+01 0.  1.
<mgrwt>
<rscale>  2 0.18599238E+03</rscale>
<asrwt>0</asrwt>
<pdfrwt beam="1">  1       21 0.47915091E-01 0.18646249E+03</pdfrwt>
<pdfrwt beam="2">  1       21 0.39495443E-01 0.18646249E+03</pdfrwt>
<totfact> 0.25816654E+04</totfact>
</mgrwt>
</event>
<event>
12    1  0.2791583E-001  0.1792923E+03  0.7546771E-02  0.1168674E+00
         21   -1    0    0  502  503  0.00000000000E+00  0.00000000000E+00  0.87512590238E+03  0.87512590238E+03  0.00000000000E+00 0. -1.
         21   -1    0    0  503  504 -0.00000000000E+00 -0.00000000000E+00 -0.37849212862E+02  0.37849212862E+02  0.00000000000E+00 0. -1.
         -6    2    1    2    0  504 -0.41801458267E+02  0.23687277472E+02  0.33583105191E+03  0.38069439762E+03  0.17273470968E+03 0.  0.
        -24    2    3    3    0    0 -0.36110824122E+02 -0.47063654290E+02  0.13897101697E+03  0.17137635965E+03  0.80857491408E+02 0.  0.
          6    2    1    2  502    0  0.41801458267E+02 -0.23687277472E+02  0.50144563761E+03  0.53228071762E+03  0.17194937001E+03 0.  0.
         24    2    5    5    0    0  0.54845506329E+00 -0.75100672043E+02  0.27610664041E+03  0.29745120271E+03  0.81252257637E+02 0.  0.
          4    1    6    6  501    0  0.25653809599E+02 -0.74380112518E+02  0.24582524984E+03  0.25810961343E+03  0.00000000000E+00 0. -1.
         -3    1    6    6    0  501 -0.25105354535E+02 -0.72055952485E+00  0.30281390569E+02  0.39341589281E+02  0.00000000000E+00 0.  1.
          5    1    5    5  502    0  0.41253003204E+02  0.51413394571E+02  0.22533899720E+03  0.23482951491E+03  0.47000000000E+01 0. -1.
         11    1    4    4    0    0  0.15168547629E+02 -0.22135452950E+01 -0.13535912042E+01  0.15388854054E+02  0.00000000000E+00 0. -1.
        -12    1    4    4    0    0 -0.51279371752E+02 -0.44850108995E+02  0.14032460817E+03  0.15598750560E+03  0.00000000000E+00 0.  1.
         -5    1    3    3    0  504 -0.56906341450E+01  0.70750931762E+02  0.19686003494E+03  0.20931803797E+03  0.47000000000E+01 0.  1.
<mgrwt>
<rscale>  2 0.17910288E+03</rscale>
<asrwt>0</asrwt>
<pdfrwt beam="1">  1       21 0.13463474E+00 0.17929230E+03</pdfrwt>
<pdfrwt beam="2">  1       21 0.58229565E-02 0.17929230E+03</pdfrwt>
<totfact> 0.82618445E+04</totfact>
</mgrwt>
</event>
<event>
12    1  0.2791583E-001  0.2008669E+03  0.7546771E-02  0.1149442E+00
         21   -1    0    0  502  503  0.00000000000E+00  0.00000000000E+00  0.32537541576E+03  0.32537541576E+03  0.00000000000E+00 0. -1.
         21   -1    0    0  503  504 -0.00000000000E+00 -0.00000000000E+00 -0.21594506168E+03  0.21594506168E+03  0.00000000000E+00 0.  1.
         -6    2    1    2    0  504 -0.72317650965E+02 -0.66632759338E+02 -0.12294087462E+03  0.23550361958E+03  0.17515058928E+03 0.  0.
        -24    2    3    3    0    0  0.66007970220E+01  0.18295564254E+02 -0.68074169736E+02  0.10715492701E+03  0.80434989922E+02 0.  0.
          6    2    1    2  502    0  0.72317650965E+02  0.66632759338E+02  0.23237122871E+03  0.30581685786E+03  0.17279408371E+03 0.  0.
         24    2    5    5    0    0  0.32891349482E+02  0.10026294378E+03  0.21178053479E+03  0.24985714709E+03  0.80268924683E+02 0.  0.
          4    1    6    6  501    0  0.49650317407E+02  0.43735230022E+02  0.15256268484E+03  0.16629280552E+03  0.00000000000E+00 0. -1.
         -3    1    6    6    0  501 -0.16758967925E+02  0.56527713756E+02  0.59217849949E+02  0.83564341564E+02  0.00000000000E+00 0.  1.
          5    1    5    5  502    0  0.39426301483E+02 -0.33630184440E+02  0.20590693919E+02  0.55959710777E+02  0.47000000000E+01 0. -1.
         11    1    4    4    0    0 -0.15700041805E+00 -0.27201490869E+02 -0.28601012686E+01  0.27351890865E+02  0.00000000000E+00 0. -1.
        -12    1    4    4    0    0  0.67577974401E+01  0.45497055123E+02 -0.65214068468E+02  0.79803036140E+02  0.00000000000E+00 0.  1.
         -5    1    3    3    0  504 -0.78918447987E+02 -0.84928323592E+02 -0.54866704887E+02  0.12834869258E+03  0.47000000000E+01 0.  1.
<mgrwt>
<rscale>  2 0.20035202E+03</rscale>
<asrwt>0</asrwt>
<pdfrwt beam="1">  1       21 0.50057757E-01 0.20086686E+03</pdfrwt>
<pdfrwt beam="2">  1       21 0.33222317E-01 0.20086686E+03</pdfrwt>
<totfact> 0.33016687E+04</totfact>
</mgrwt>
</event>
<event>
12    1  0.2791583E-001  0.2343681E+03  0.7546771E-02  0.1123704E+00
         21   -1    0    0  502  503  0.00000000000E+00  0.00000000000E+00  0.73569770509E+02  0.73569770509E+02  0.00000000000E+00 0. -1.
         21   -1    0    0  503  504 -0.00000000000E+00 -0.00000000000E+00 -0.85268889183E+03  0.85268889183E+03  0.00000000000E+00 0. -1.
         -6    2    1    2    0  504 -0.10586729804E+03  0.11505208795E+03 -0.55476742181E+03  0.60224189969E+03  0.17459537709E+03 0.  0.
        -24    2    3    3    0    0 -0.92374305506E+02  0.14924034535E+03 -0.41659359510E+03  0.45918598691E+03  0.80596861601E+02 0.  0.
          6    2    1    2  502    0  0.10586729804E+03 -0.11505208795E+03 -0.22435169951E+03  0.32401676265E+03  0.17380537872E+03 0.  0.
         24    2    5    5    0    0  0.14319892801E+03 -0.86028362485E+02 -0.18664958660E+03  0.26335733178E+03  0.81315459104E+02 0.  0.
          2    1    6    6  501    0  0.15182610340E+03 -0.72724399913E+02 -0.15943845350E+03  0.23186337458E+03  0.00000000000E+00 0. -1.
         -1    1    6    6    0  501 -0.86271753961E+01 -0.13303962572E+02 -0.27211133100E+02  0.31493957198E+02  0.00000000000E+00 0.  1.
          5    1    5    5  502    0 -0.37331629970E+02 -0.29023725462E+02 -0.37702112904E+02  0.60659430869E+02  0.47000000000E+01 0. -1.
         11    1    4    4    0    0 -0.49744454221E+02  0.46354439564E+02 -0.81879959086E+02  0.10643106921E+03  0.00000000000E+00 0. -1.
        -12    1    4    4    0    0 -0.42629851285E+02  0.10288590579E+03 -0.33471363601E+03  0.35275491770E+03  0.00000000000E+00 0.  1.
         -5    1    3    3    0  504 -0.13492992530E+02 -0.34188257405E+02 -0.13817382672E+03  0.14305591278E+03  0.47000000000E+01 0.  1.
<mgrwt>
<rscale>  2 0.23422100E+03</rscale>
<asrwt>0</asrwt>
<pdfrwt beam="1">  1       21 0.11318427E-01 0.23436812E+03</pdfrwt>
<pdfrwt beam="2">  1       21 0.13118290E+00 0.23436812E+03</pdfrwt>
<totfact> 0.26862112E+04</totfact>
</mgrwt>
</event>
<event>
12    1  0.2791583E-001  0.2250511E+03  0.7546771E-02  0.1130302E+00
         21   -1    0    0  502  503  0.00000000000E+00  0.00000000000E+00  0.23223000019E+03  0.23223000019E+03  0.00000000000E+00 0.  1.
         21   -1    0    0  503  504 -0.00000000000E+00 -0.00000000000E+00 -0.25639359898E+03  0.25639359898E+03  0.00000000000E+00 0. -1.
         -6    2    1    2    0  504 -0.65888690443E+02  0.12869196747E+03 -0.10737384290E+03  0.24935347250E+03  0.17246759142E+03 0.  0.
        -24    2    3    3    0    0 -0.10977412742E+03  0.11313935079E+03 -0.73691487912E+02  0.19169580604E+03  0.80411285973E+02 0.  0.
          6    2    1    2  502    0  0.65888690443E+02 -0.12869196747E+03  0.83210244117E+02  0.23927012667E+03  0.17153223246E+03 0.  0.
         24    2    5    5    0    0 -0.11936166863E+02 -0.99320993382E+02  0.89118926103E+02  0.15574548925E+03  0.79418780060E+02 0.  0.
          4    1    6    6  501    0  0.25456022883E+02 -0.43967702855E+02  0.69566589306E+02  0.86143359251E+02  0.00000000000E+00 0. -1.
         -3    1    6    6    0  501 -0.37392189746E+02 -0.55353290526E+02  0.19552336797E+02  0.69602129998E+02  0.00000000000E+00 0.  1.
          5    1    5    5  502    0  0.77824857306E+02 -0.29370974086E+02 -0.59086819858E+01  0.83524637420E+02  0.47000000000E+01 0. -1.
         11    1    4    4    0    0 -0.11948199505E+03  0.95336361070E+02 -0.76991915401E+02  0.17115117271E+03  0.00000000000E+00 0. -1.
        -12    1    4    4    0    0  0.97078676256E+01  0.17802989722E+02  0.33004274887E+01  0.20544633326E+02  0.00000000000E+00 0.  1.
         -5    1    3    3    0  504  0.43885436981E+02  0.15552616675E+02 -0.33682354990E+02  0.57657666464E+02  0.47000000000E+01 0.  1.
<mgrwt>
<rscale>  2 0.22487192E+03</rscale>
<asrwt>0</asrwt>
<pdfrwt beam="1">  1       21 0.35727692E-01 0.22505113E+03</pdfrwt>
<pdfrwt beam="2">  1       21 0.39445169E-01 0.22505113E+03</pdfrwt>
<totfact> 0.46084846E+04</totfact>
</mgrwt>
</event>
<event>
12    1  0.2791583E-001  0.2156037E+03  0.7546771E-02  0.1139074E+00
         21   -1    0    0  502  503  0.00000000000E+00  0.00000000000E+00  0.17959306638E+04  0.17959306638E+04  0.00000000000E+00 0.  1.
         21   -1    0    0  503  504 -0.00000000000E+00 -0.00000000000E+00 -0.27231436110E+02  0.27231436110E+02  0.00000000000E+00 0.  1.
         -6    2    1    2    0  504 -0.58117802509E+02  0.11561277803E+03  0.59109237265E+03  0.62598088736E+03  0.16036796725E+03 0.  0.
        -24    2    3    3    0    0 -0.57150764912E+02  0.13386491645E+03  0.39021653375E+03  0.42422046415E+03  0.80672381936E+02 0.  0.
          6    2    1    2  502    0  0.58117802509E+02 -0.11561277803E+03  0.11776068551E+04  0.11971812126E+04  0.17245566747E+03 0.  0.
         24    2    5    5    0    0  0.10128202387E+03 -0.91038723207E+02  0.74963330547E+03  0.76630944125E+03  0.82060767687E+02 0.  0.
          2    1    6    6  501    0  0.62477836347E+01  0.10349912652E+01  0.14259427273E+01  0.64914805650E+01  0.00000000000E+00 0. -1.
         -1    1    6    6    0  501  0.95034240234E+02 -0.92073714473E+02  0.74820736275E+03  0.75981796069E+03  0.00000000000E+00 0.  1.
          5    1    5    5  502    0 -0.43164221360E+02 -0.24574054820E+02  0.42797354961E+03  0.43087177134E+03  0.47000000000E+01 0. -1.
         13    1    4    4    0    0 -0.17153794066E+02  0.65779603500E+00  0.11215031879E+02  0.20505177067E+02  0.00000000000E+00 0. -1.
        -14    1    4    4    0    0 -0.39996970846E+02  0.13320712041E+03  0.37900150187E+03  0.40371528709E+03  0.00000000000E+00 0.  1.
         -5    1    3    3    0  504 -0.96703759692E+00 -0.18252138419E+02  0.20087583890E+03  0.20176042320E+03  0.47000000000E+01 0.  1.
<mgrwt>
<rscale>  2 0.21317783E+03</rscale>
<asrwt>0</asrwt>
<pdfrwt beam="1">  1       21 0.27629693E+00 0.21560369E+03</pdfrwt>
<pdfrwt beam="2">  1       21 0.41894531E-02 0.21560369E+03</pdfrwt>
<totfact> 0.16593597E+04</totfact>
</mgrwt>
</event>
<event>
12    1  0.2791583E-001  0.2426781E+03  0.7546771E-02  0.1118405E+00
         21   -1    0    0  502  503  0.00000000000E+00  0.00000000000E+00  0.14109697408E+04  0.14109697408E+04  0.00000000000E+00 0.  1.
         21   -1    0    0  503  504 -0.00000000000E+00 -0.00000000000E+00 -0.42471066515E+02  0.42471066515E+02  0.00000000000E+00 0. -1.
         -6    2    1    2    0  504 -0.15804654188E+03 -0.65776134546E+02  0.56248941662E+03  0.61169049312E+03  0.16871783039E+03 0.  0.
        -24    2    3    3    0    0 -0.49864284201E+02 -0.85943837824E+02  0.34447508756E+03  0.36743146093E+03  0.80436325335E+02 0.  0.
          6    2    1    2  502    0  0.15804654188E+03  0.65776134546E+02  0.80600925769E+03  0.84175031422E+03  0.17201005415E+03 0.  0.
         24    2    5    5    0    0  0.18632704956E+03  0.67695501966E+02  0.70517584752E+03  0.73690310304E+03  0.80329054229E+02 0.  0.
          4    1    6    6  501    0  0.62069455409E+02  0.62600521943E+02  0.25207656702E+03  0.26704688405E+03  0.00000000000E+00 0. -1.
         -3    1    6    6    0  501  0.12425759415E+03  0.50949800223E+01  0.45309928051E+03  0.46985621899E+03  0.00000000000E+00 0.  1.
          5    1    5    5  502    0 -0.28280507682E+02 -0.19193674201E+01  0.10083341017E+03  0.10484721118E+03  0.47000000000E+01 0. -1.
         13    1    4    4    0    0 -0.27912489567E+02 -0.26054451353E+02  0.36161876215E+02  0.52589189008E+02  0.00000000000E+00 0. -1.
        -14    1    4    4    0    0 -0.21951794633E+02 -0.59889386471E+02  0.30831321134E+03  0.31484227192E+03  0.00000000000E+00 0.  1.
         -5    1    3    3    0  504 -0.10818225768E+03  0.20167703279E+02  0.21801432906E+03  0.24425903219E+03  0.47000000000E+01 0.  1.
<mgrwt>
<rscale>  2 0.24209544E+03</rscale>
<asrwt>0</asrwt>
<pdfrwt beam="1">  1       21 0.21707223E+00 0.24267812E+03</pdfrwt>
<pdfrwt beam="2">  1       21 0.65340113E-02 0.24267812E+03</pdfrwt>
<totfact> 0.17208550E+04</totfact>
</mgrwt>
</event>
<event>
12    1  0.2791583E-001  0.1818021E+03  0.7546771E-02  0.1166865E+00
         21   -1    0    0  502  503  0.00000000000E+00  0.00000000000E+00  0.26069632078E+03  0.26069632078E+03  0.00000000000E+00 0.  1.
         21   -1    0    0  503  504 -0.00000000000E+00 -0.00000000000E+00 -0.17467081732E+03  0.17467081732E+03  0.00000000000E+00 0.  1.
         -6    2    1    2    0  504 -0.21723155211E+01 -0.43228645036E+02 -0.73374277907E+02  0.19605044932E+03  0.17657451490E+03 0.  0.
        -24    2    3    3    0    0  0.15635706753E+01  0.42294115738E+02 -0.29000173537E+01  0.85069320938E+02  0.73736980443E+02 0.  0.
          6    2    1    2  502    0  0.21723155211E+01  0.43228645036E+02  0.15939978137E+03  0.23931668878E+03  0.17317838352E+03 0.  0.
         24    2    5    5    0    0  0.58324139383E+02  0.30128629907E+02  0.46907554256E+02  0.11282072488E+03  0.78859100569E+02 0.  0.
          2    1    6    6  501    0  0.10523095677E+02  0.26506569313E+02 -0.16794094336E+02  0.33096455458E+02  0.00000000000E+00 0. -1.
         -1    1    6    6    0  501  0.47801043706E+02  0.36220605940E+01  0.63701648591E+02  0.79724269426E+02  0.00000000000E+00 0.  1.
          5    1    5    5  502    0 -0.56151823861E+02  0.13100015129E+02  0.11249222711E+03  0.12649596389E+03  0.47000000000E+01 0. -1.
         13    1    4    4    0    0 -0.31215865440E+02  0.28449079399E+01 -0.10842174128E+02  0.33167401106E+02  0.00000000000E+00 0. -1.
        -14    1    4    4    0    0  0.32779436115E+02  0.39449207798E+02  0.79421567741E+01  0.51901919831E+02  0.00000000000E+00 0.  1.
         -5    1    3    3    0  504 -0.37358861964E+01 -0.85522760774E+02 -0.70474260553E+02  0.11098112838E+03  0.47000000000E+01 0.  1.
<mgrwt>
<rscale>  2 0.18097225E+03</rscale>
<asrwt>0</asrwt>
<pdfrwt beam="1">  1       21 0.40107126E-01 0.18180207E+03</pdfrwt>
<pdfrwt beam="2">  1       21 0.26872433E-01 0.18180207E+03</pdfrwt>
<totfact> 0.79364283E+04</totfact>
</mgrwt>
</event>
<event>
12    1  0.2791583E-001  0.2061955E+03  0.7546771E-02  0.1144627E+00
         21   -1    0    0  502  503  0.00000000000E+00  0.00000000000E+00  0.18136609536E+03  0.18136609536E+03  0.00000000000E+00 0.  1.
         21   -1    0    0  503  504 -0.00000000000E+00 -0.00000000000E+00 -0.53279160647E+03  0.53279160647E+03  0.00000000000E+00 0. -1.
         -6    2    1    2    0  504  0.10772377912E+03 -0.26368525396E+02 -0.44294778902E+03  0.48856313149E+03  0.17375695075E+03 0.  0.
        -24    2    3    3    0    0  0.75514812983E+02  0.49467940680E+01 -0.42658982437E+03  0.44052419166E+03  0.79722816232E+02 0.  0.
          6    2    1    2  502    0 -0.10772377912E+03  0.26368525396E+02  0.91522277912E+02  0.22559457035E+03  0.17383000632E+03 0.  0.
         24    2    5    5    0    0 -0.13924693422E+02  0.12481336989E+02  0.10330208971E+03  0.12992860752E+03  0.76553513650E+02 0.  0.
          2    1    6    6  501    0  0.29411673110E+02  0.59580406226E+01  0.65522556710E+02  0.72067677921E+02  0.00000000000E+00 0. -1.
         -1    1    6    6    0  501 -0.43336366532E+02  0.65232963662E+01  0.37779533003E+02  0.57860929595E+02  0.00000000000E+00 0.  1.
          5    1    5    5  502    0 -0.93799085694E+02  0.13887188407E+02 -0.11779811801E+02  0.95665962834E+02  0.47000000000E+01 0. -1.
         13    1    4    4    0    0 -0.92341785393E+01  0.83064756004E+01 -0.16632442042E+03  0.16678753076E+03  0.00000000000E+00 0. -1.
        -14    1    4    4    0    0  0.84748991522E+02 -0.33596815323E+01 -0.26026540395E+03  0.27373666089E+03  0.00000000000E+00 0.  1.
         -5    1    3    3    0  504  0.32208966133E+02 -0.31315319464E+02 -0.16357964650E+02  0.48038939830E+02  0.47000000000E+01 0.  1.
<mgrwt>
<rscale>  2 0.20618010E+03</rscale>
<asrwt>0</asrwt>
<pdfrwt beam="1">  1       21 0.27902476E-01 0.20619550E+03</pdfrwt>
<pdfrwt beam="2">  1       21 0.81967939E-01 0.20619550E+03</pdfrwt>
<totfact> 0.15829571E+04</totfact>
</mgrwt>
</event>
<event>
12    1  0.2791583E-001  0.2305592E+03  0.7546771E-02  0.1126667E+00
         21   -1    0    0  502  503  0.00000000000E+00  0.00000000000E+00  0.46855326033E+03  0.46855326033E+03  0.00000000000E+00 0. -1.
         21   -1    0    0  503  504 -0.00000000000E+00 -0.00000000000E+00 -0.11362501494E+03  0.11362501494E+03  0.00000000000E+00 0. -1.
         -6    2    1    2    0  504  0.43949613852E+02 -0.14114260051E+03  0.20821007188E+03  0.30889494306E+03  0.17381556197E+03 0.  0.
        -24    2    3    3    0    0 -0.10833848268E+02 -0.60795933600E+01  0.82052856500E+02  0.11607124998E+03  0.81151279034E+02 0.  0.
          6    2    1    2  502    0 -0.43949613852E+02  0.14114260051E+03  0.14671817351E+03  0.27328333220E+03  0.17693149800E+03 0.  0.
         24    2    5    5    0    0 -0.87656909377E+02  0.10062602180E+03  0.14794743311E+03  0.21348766420E+03  0.76676005224E+02 0.  0.
          4    1    6    6  501    0 -0.50334798035E+02  0.76152100758E+02  0.46043283969E+02  0.10223853648E+03  0.00000000000E+00 0. -1.
         -3    1    6    6    0  501 -0.37322111342E+02  0.24473921043E+02  0.10190414914E+03  0.11124912772E+03  0.00000000000E+00 0.  1.
          5    1    5    5  502    0  0.43707295524E+02  0.40516578706E+02 -0.12292595973E+01  0.59795667997E+02  0.47000000000E+01 0. -1.
         13    1    4    4    0    0 -0.24964762261E+02 -0.33831762147E+02  0.19823922621E+02  0.46484571556E+02  0.00000000000E+00 0. -1.
        -14    1    4    4    0    0  0.14130913992E+02  0.27752168787E+02  0.62228933879E+02  0.69586678426E+02  0.00000000000E+00 0.  1.
         -5    1    3    3    0  504  0.54783462121E+02 -0.13506300715E+03  0.12615721538E+03  0.19282369308E+03  0.47000000000E+01 0.  1.
<mgrwt>
<rscale>  2 0.22996130E+03</rscale>
<asrwt>0</asrwt>
<pdfrwt beam="1">  1       21 0.72085116E-01 0.23055923E+03</pdfrwt>
<pdfrwt beam="2">  1       21 0.17480772E-01 0.23055923E+03</pdfrwt>
<totfact> 0.50552251E+04</totfact>
</mgrwt>
</event>
<event>
12    1  0.2791583E-001  0.1866635E+03  0.7546771E-02  0.1163665E+00
         21   -1    0    0  502  503  0.00000000000E+00  0.00000000000E+00  0.36799783263E+03  0.36799783263E+03  0.00000000000E+00 0.  1.
         21   -1    0    0  503  504 -0.00000000000E+00 -0.00000000000E+00 -0.24895273772E+03  0.24895273772E+03  0.00000000000E+00 0.  1.
         -6    2    1    2    0  504 -0.36203590508E+02  0.59328821884E+02 -0.18630657258E+03  0.26372978951E+03  0.17324160533E+03 0.  0.
        -24    2    3    3    0    0  0.45233653775E+02  0.45943927079E+02 -0.95659910375E+02  0.14105099129E+03  0.81164252110E+02 0.  0.
          6    2    1    2  502    0  0.36203590508E+02 -0.59328821884E+02  0.30535166750E+03  0.35322078084E+03  0.16338503635E+03 0.  0.
         24    2    5    5    0    0  0.75640495248E+02 -0.72884464146E+02  0.19009653642E+03  0.23056328971E+03  0.77389325911E+02 0.  0.
          4    1    6    6  501    0  0.15801438728E+01 -0.46393668615E+02  0.40745197243E+02  0.61766013637E+02  0.00000000000E+00 0. -1.
         -3    1    6    6    0  501  0.74060351375E+02 -0.26490795532E+02  0.14935133918E+03  0.16879727607E+03  0.00000000000E+00 0.  1.
          5    1    5    5  502    0 -0.39436904740E+02  0.13555642262E+02  0.11525513107E+03  0.12265749113E+03  0.47000000000E+01 0. -1.
         11    1    4    4    0    0  0.36156953231E+02  0.62104261889E+02 -0.98882998260E+02  0.12223793174E+03  0.00000000000E+00 0. -1.
        -12    1    4    4    0    0  0.90767005440E+01 -0.16160334809E+02  0.32230878843E+01  0.18813059545E+02  0.00000000000E+00 0.  1.
         -5    1    3    3    0  504 -0.81437244283E+02  0.13384894805E+02 -0.90646662205E+02  0.12267879823E+03  0.47000000000E+01 0.  1.
<mgrwt>
<rscale>  2 0.18434312E+03</rscale>
<asrwt>0</asrwt>
<pdfrwt beam="1">  1       21 0.56615051E-01 0.18666350E+03</pdfrwt>
<pdfrwt beam="2">  1       21 0.38300421E-01 0.18666350E+03</pdfrwt>
<totfact> 0.19353672E+04</totfact>
</mgrwt>
</event>
<event>
12    1  0.2791583E-001  0.2371146E+03  0.7546771E-02  0.1122266E+00
         21   -1    0    0  502  503  0.00000000000E+00  0.00000000000E+00  0.10881153295E+03  0.10881153295E+03  0.00000000000E+00 0. -1.
         21   -1    0    0  503  504 -0.00000000000E+00 -0.00000000000E+00 -0.78892445487E+03  0.78892445487E+03  0.00000000000E+00 0. -1.
         -6    2    1    2    0  504  0.71004598109E+02  0.14027466862E+03 -0.60554258878E+03  0.64917194988E+03  0.17327365085E+03 0.  0.
        -24    2    3    3    0    0  0.45659075129E+02  0.14279192380E+02 -0.36046731192E+03  0.37240266529E+03  0.80364268633E+02 0.  0.
          6    2    1    2  502    0 -0.71004598109E+02 -0.14027466862E+03 -0.74570333134E+02  0.24856403794E+03  0.17749566407E+03 0.  0.
         24    2    5    5    0    0 -0.61170437770E+02 -0.18092438266E+02 -0.73894042879E+02  0.12589474475E+03  0.79498417615E+02 0.  0.
          2    1    6    6  501    0 -0.78858769362E+02 -0.25257419807E+02 -0.61377087739E+02  0.10307176946E+03  0.00000000000E+00 0. -1.
         -1    1    6    6    0  501  0.17688331593E+02  0.71649815409E+01 -0.12516955140E+02  0.22822975288E+02  0.00000000000E+00 0.  1.
          5    1    5    5  502    0 -0.98341603390E+01 -0.12218223035E+03 -0.67629025515E+00  0.12266929319E+03  0.47000000000E+01 0. -1.
         13    1    4    4    0    0 -0.18308079566E+02  0.15494000973E+02 -0.50561892029E+02  0.55962083316E+02  0.00000000000E+00 0. -1.
        -14    1    4    4    0    0  0.63967154696E+02 -0.12148085928E+01 -0.30990541989E+03  0.31644058197E+03  0.00000000000E+00 0.  1.
         -5    1    3    3    0  504  0.25345522979E+02  0.12599547624E+03 -0.24507527686E+03  0.27676928460E+03  0.47000000000E+01 0.  1.
<mgrwt>
<rscale>  2 0.23632476E+03</rscale>
<asrwt>0</asrwt>
<pdfrwt beam="1">  1       21 0.16740236E-01 0.23711463E+03</pdfrwt>
<pdfrwt beam="2">  1       21 0.12137299E+00 0.23711463E+03</pdfrwt>
<totfact> 0.16026701E+04</totfact>
</mgrwt>
</event>
<event>
12    1  0.2791583E-001  0.1787777E+03  0.7546771E-02  0.1169362E+00
         21   -1    0    0  502  503  0.00000000000E+00  0.00000000000E+00  0.16762996867E+03  0.16762996867E+03  0.00000000000E+00 0. -1.
         21   -1    0    0  503  504 -0.00000000000E+00 -0.00000000000E+00 -0.28633404640E+03  0.28633404640E+03  0.00000000000E+00 0. -1.
         -6    2    1    2    0  504 -0.64703981953E+01  0.38471000523E+02 -0.19148368723E+03  0.26093980471E+03  0.17292106660E+03 0.  0.
        -24    2    3    3    0    0 -0.44049565543E+02 -0.45304507349E+01 -0.18076521301E+03  0.20264491370E+03  0.80174868911E+02 0.  0.
          6    2    1    2  502    0  0.64703981953E+01 -0.38471000523E+02  0.72779609499E+02  0.19302421036E+03  0.17446945375E+03 0.  0.
         24    2    5    5    0    0 -0.22946223331E+02 -0.84165584538E+02  0.28049052887E+02  0.12248170314E+03  0.81268957481E+02 0.  0.
          2    1    6    6  501    0 -0.98016842015E+01 -0.62983565301E+02  0.56129283276E+02  0.84932319833E+02  0.00000000000E+00 0. -1.
         -1    1    6    6    0  501 -0.13144539130E+02 -0.21182019237E+02 -0.28080230389E+02  0.37549383305E+02  0.00000000000E+00 0.  1.
          5    1    5    5  502    0  0.29416621527E+02  0.45694584015E+02  0.44730556613E+02  0.70542507222E+02  0.47000000000E+01 0. -1.
         13    1    4    4    0    0 -0.33039047440E+02  0.31630206328E+02 -0.13891419897E+03  0.14625048131E+03  0.00000000000E+00 0. -1.
        -14    1    4    4    0    0 -0.11010518103E+02 -0.36160657062E+02 -0.41851014035E+02  0.56394432383E+02  0.00000000000E+00 0.  1.
         -5    1    3    3    0  504  0.37579167348E+02  0.43001451258E+02 -0.10718474221E+02  0.58294891015E+02  0.47000000000E+01 0.  1.
<mgrwt>
<rscale>  2 0.17839883E+03</rscale>
<asrwt>0</asrwt>
<pdfrwt beam="1">  1       21 0.25789226E-01 0.17877772E+03</pdfrwt>
<pdfrwt beam="2">  1       21 0.44051392E-01 0.17877772E+03</pdfrwt>
<totfact> 0.71070520E+04</totfact>
</mgrwt>
</event>
<event>
12    1  0.2791583E-001  0.1847900E+03  0.7546771E-02  0.1163289E+00
         21   -1    0    0  502  503  0.00000000000E+00  0.00000000000E+00  0.16383665880E+03  0.16383665880E+03  0.00000000000E+00 0.  1.
         21   -1    0    0  503  504 -0.00000000000E+00 -0.00000000000E+00 -0.58103081105E+03  0.58103081105E+03  0.00000000000E+00 0.  1.
         -6    2    1    2    0  504  0.63610446465E+02  0.14387599421E+02 -0.50696326982E+03  0.53959159824E+03  0.17289894166E+03 0.  0.
        -24    2    3    3    0    0  0.91972546253E+02 -0.24356380122E+02 -0.26505320211E+03  0.29291757140E+03  0.80593555398E+02 0.  0.
          6    2    1    2  502    0 -0.63610446465E+02 -0.14387599421E+02  0.89769117577E+02  0.20527587160E+03  0.17270320516E+03 0.  0.
         24    2    5    5    0    0 -0.80735756412E+02  0.10038035839E+02  0.11731696934E+03  0.16439969229E+03  0.81516642493E+02 0.  0.
          4    1    6    6  501    0 -0.11305129145E+02  0.35849834789E+02  0.59733219006E+02  0.70576724578E+02  0.00000000000E+00 0. -1.
         -3    1    6    6    0  501 -0.69430627267E+02 -0.25811798951E+02  0.57583750330E+02  0.93822967709E+02  0.00000000000E+00 0.  1.
          5    1    5    5  502    0  0.17125309947E+02 -0.24425635260E+02 -0.27547851758E+02  0.40876179312E+02  0.47000000000E+01 0. -1.
         11    1    4    4    0    0  0.26128801037E+02  0.23836563590E+01 -0.98845732606E+01  0.28037490077E+02  0.00000000000E+00 0. -1.
        -12    1    4    4    0    0  0.65843745216E+02 -0.26740036481E+02 -0.25516862885E+03  0.26488008133E+03  0.00000000000E+00 0.  1.
         -5    1    3    3    0  504 -0.28362099788E+02  0.38743979543E+02 -0.24191006772E+03  0.24667402684E+03  0.47000000000E+01 0.  1.
<mgrwt>
<rscale>  2 0.18474418E+03</rscale>
<asrwt>0</asrwt>
<pdfrwt beam="1">  1       21 0.25205640E-01 0.18478998E+03</pdfrwt>
<pdfrwt beam="2">  1       21 0.89389355E-01 0.18478998E+03</pdfrwt>
<totfact> 0.15994337E+04</totfact>
</mgrwt>
</event>
<event>
12    1  0.2791583E-001  0.2334632E+03  0.7546771E-02  0.1124785E+00
         21   -1    0    0  502  503  0.00000000000E+00  0.00000000000E+00  0.59362153407E+02  0.59362153407E+02  0.00000000000E+00 0. -1.
         21   -1    0    0  503  504 -0.00000000000E+00 -0.00000000000E+00 -0.10002292170E+04  0.10002292170E+04  0.00000000000E+00 0.  1.
         -6    2    1    2    0  504  0.15146919531E+03 -0.38184122023E+02 -0.63045306332E+03  0.67118190963E+03  0.16915420910E+03 0.  0.
        -24    2    3    3    0    0  0.17565226712E+02  0.15360283075E+02 -0.29290742287E+03  0.30409006075E+03  0.78304094331E+02 0.  0.
          6    2    1    2  502    0 -0.15146919531E+03  0.38184122023E+02 -0.31041400030E+03  0.38840946081E+03  0.17350536984E+03 0.  0.
         24    2    5    5    0    0 -0.25399347734E+02 -0.10854456469E+02 -0.19025230569E+03  0.20741412524E+03  0.77857134779E+02 0.  0.
          2    1    6    6  501    0 -0.11858644723E+02 -0.40941419483E+02 -0.63801032798E+02  0.76729388568E+02  0.00000000000E+00 0. -1.
         -1    1    6    6    0  501 -0.13540703011E+02  0.30086963015E+02 -0.12645127290E+03  0.13068473667E+03  0.00000000000E+00 0.  1.
          5    1    5    5  502    0 -0.12606984757E+03  0.49038578492E+02 -0.12016169461E+03  0.18099533557E+03  0.47000000000E+01 0. -1.
         11    1    4    4    0    0 -0.10441943316E+02 -0.35265892569E+01 -0.19675105035E+01  0.11195629039E+02  0.00000000000E+00 0. -1.
        -12    1    4    4    0    0  0.28007170028E+02  0.18886872332E+02 -0.29093991236E+03  0.29289443171E+03  0.00000000000E+00 0.  1.
         -5    1    3    3    0  504  0.13390396860E+03 -0.53544405098E+02 -0.33754564045E+03  0.36709184888E+03  0.47000000000E+01 0.  1.
<mgrwt>
<rscale>  2 0.23265517E+03</rscale>
<asrwt>0</asrwt>
<pdfrwt beam="1">  1       21 0.91326394E-02 0.23346318E+03</pdfrwt>
<pdfrwt beam="2">  1       21 0.15388141E+00 0.23346318E+03</pdfrwt>
<totfact> 0.25943048E+04</totfact>
</mgrwt>
</event>
<event>
12    1  0.2791583E-001  0.2317220E+03  0.7546771E-02  0.1126080E+00
         21   -1    0    0  502  503  0.00000000000E+00  0.00000000000E+00  0.87388454066E+02  0.87388454066E+02  0.00000000000E+00 0. -1.
         21   -1    0    0  503  504 -0.00000000000E+00 -0.00000000000E+00 -0.60697136169E+03  0.60697136169E+03  0.00000000000E+00 0. -1.
         -6    2    1    2    0  504  0.14317703010E+02  0.15294852610E+03 -0.23659025197E+03  0.32860043423E+03  0.16853797731E+03 0.  0.
        -24    2    3    3    0    0  0.70270574613E+02  0.10971311040E+03 -0.13452630525E+03  0.20434600079E+03  0.81762099914E+02 0.  0.
          6    2    1    2  502    0 -0.14317703010E+02 -0.15294852610E+03 -0.28299265565E+03  0.36575938152E+03  0.17348439054E+03 0.  0.
         24    2    5    5    0    0  0.51331451871E+02 -0.10896397936E+03 -0.20426437863E+03  0.25411403459E+03  0.91334218390E+02 0.  0.
          4    1    6    6  501    0  0.51658389107E+02 -0.41279251340E+02 -0.42097359782E+02  0.78388477833E+02  0.00000000000E+00 0. -1.
         -3    1    6    6    0  501 -0.32693723556E+00 -0.67684728015E+02 -0.16216701885E+03  0.17572555676E+03  0.00000000000E+00 0.  1.
          5    1    5    5  502    0 -0.65649154881E+02 -0.43984546746E+02 -0.78728277015E+02  0.11164534693E+03  0.47000000000E+01 0. -1.
         13    1    4    4    0    0  0.41573410245E+02  0.10777835151E+03 -0.13209504390E+03  0.17548111613E+03  0.00000000000E+00 0. -1.
        -14    1    4    4    0    0  0.28697164368E+02  0.19347588946E+01 -0.24312613496E+01  0.28864884661E+02  0.00000000000E+00 0.  1.
         -5    1    3    3    0  504 -0.55952871604E+02  0.43235415698E+02 -0.10206394672E+03  0.12425443345E+03  0.47000000000E+01 0.  1.
<mgrwt>
<rscale>  2 0.23079654E+03</rscale>
<asrwt>0</asrwt>
<pdfrwt beam="1">  1       21 0.13444378E-01 0.23172199E+03</pdfrwt>
<pdfrwt beam="2">  1       21 0.93380205E-01 0.23172199E+03</pdfrwt>
<totfact> 0.45255422E+04</totfact>
</mgrwt>
</event>
<event>
12    1  0.2791583E-001  0.1792041E+03  0.7546771E-02  0.1169978E+00
         21   -1    0    0  502  503  0.00000000000E+00  0.00000000000E+00  0.19172425672E+03  0.19172425672E+03  0.00000000000E+00 0. -1.
         21   -1    0    0  503  504 -0.00000000000E+00 -0.00000000000E+00 -0.33351055696E+03  0.33351055696E+03  0.00000000000E+00 0. -1.
         -6    2    1    2    0  504 -0.13412022889E+02  0.57722408709E+01 -0.25962595297E+03  0.31546751092E+03  0.17860826931E+03 0.  0.
        -24    2    3    3    0    0 -0.48477041117E+02  0.62080275215E+02 -0.16067881641E+03  0.19625016290E+03  0.80575804733E+02 0.  0.
          6    2    1    2  502    0  0.13412022889E+02 -0.57722408709E+01  0.11783965273E+03  0.20976730277E+03  0.17292465536E+03 0.  0.
         24    2    5    5    0    0  0.60448724208E+02  0.28118912443E+02  0.10745257590E+03  0.15068225467E+03  0.81941224723E+02 0.  0.
          2    1    6    6  501    0  0.78734528281E+02  0.34789048538E+02  0.90045792828E+02  0.12456985449E+03  0.00000000000E+00 0. -1.
         -1    1    6    6    0  501 -0.18285804073E+02 -0.66701360952E+01  0.17406783070E+02  0.26112400177E+02  0.00000000000E+00 0.  1.
          5    1    5    5  502    0 -0.47036701319E+02 -0.33891153314E+02  0.10387076831E+02  0.59085048100E+02  0.47000000000E+01 0. -1.
         13    1    4    4    0    0 -0.30429977511E+02 -0.36227911841E+01 -0.10142293488E+03  0.10595149771E+03  0.00000000000E+00 0. -1.
        -14    1    4    4    0    0 -0.18047063606E+02  0.65703066399E+02 -0.59255881533E+02  0.90298665191E+02  0.00000000000E+00 0.  1.
         -5    1    3    3    0  504  0.35065018228E+02 -0.56308034344E+02 -0.98947136561E+02  0.11921734802E+03  0.47000000000E+01 0.  1.
<mgrwt>
<rscale>  2 0.17777099E+03</rscale>
<asrwt>0</asrwt>
<pdfrwt beam="1">  1       21 0.29496040E-01 0.17920412E+03</pdfrwt>
<pdfrwt beam="2">  1       21 0.51309316E-01 0.17920412E+03</pdfrwt>
<totfact> 0.40029720E+04</totfact>
</mgrwt>
</event>
<event>
12    1  0.2791583E-001  0.1774024E+03  0.7546771E-02  0.1170365E+00
         21   -1    0    0  502  503  0.00000000000E+00  0.00000000000E+00  0.10772091797E+04  0.10772091797E+04  0.00000000000E+00 0. -1.
         21   -1    0    0  503  504 -0.00000000000E+00 -0.00000000000E+00 -0.44089469691E+03  0.44089469691E+03  0.00000000000E+00 0. -1.
         -6    2    1    2    0  504  0.19756321261E+01 -0.10263795251E+02 -0.41532286117E+03  0.45162449997E+03  0.17709421603E+03 0.  0.
        -24    2    3    3    0    0 -0.55943085715E+02 -0.45505647669E+02 -0.28657062879E+03  0.30603674849E+03  0.79595058477E+02 0.  0.
          6    2    1    2  502    0 -0.19756321261E+01  0.10263795251E+02  0.10516373439E+04  0.10664793766E+04  0.17699691803E+03 0.  0.
         24    2    5    5    0    0 -0.38603847121E+02  0.34946572257E+02  0.36679965437E+03  0.38020274387E+03  0.85443666095E+02 0.  0.
          4    1    6    6  501    0  0.21183880967E+02 -0.11077498628E+02  0.10889280033E+03  0.11148591728E+03  0.00000000000E+00 0. -1.
         -3    1    6    6    0  501 -0.59787728088E+02  0.46024070885E+02  0.25790685404E+03  0.26871682659E+03  0.00000000000E+00 0.  1.
          5    1    5    5  502    0  0.36628214995E+02 -0.24682777006E+02  0.68483768957E+03  0.68627663276E+03  0.47000000000E+01 0. -1.
         13    1    4    4    0    0  0.94125918127E+01 -0.37665486326E+02 -0.14152865837E+03  0.14675710165E+03  0.00000000000E+00 0. -1.
        -14    1    4    4    0    0 -0.65355677528E+02 -0.78401613433E+01 -0.14504197042E+03  0.15927964684E+03  0.00000000000E+00 0.  1.
         -5    1    3    3    0  504  0.57918717841E+02  0.35241852418E+02 -0.12875223238E+03  0.14558775148E+03  0.47000000000E+01 0.  1.
<mgrwt>
<rscale>  2 0.17737811E+03</rscale>
<asrwt>0</asrwt>
<pdfrwt beam="1">  1       21 0.16572449E+00 0.17740240E+03</pdfrwt>
<pdfrwt beam="2">  1       21 0.67829954E-01 0.17740240E+03</pdfrwt>
<totfact> 0.46288245E+02</totfact>
</mgrwt>
</event>
<event>
12    1  0.2791583E-001  0.1768766E+03  0.7546771E-02  0.1171462E+00
         21   -1    0    0  502  503  0.00000000000E+00  0.00000000000E+00  0.58569145165E+03  0.58569145165E+03  0.00000000000E+00 0.  1.
         21   -1    0    0  503  504 -0.00000000000E+00 -0.00000000000E+00 -0.54099547253E+02  0.54099547253E+02  0.00000000000E+00 0.  1.
         -6    2    1    2    0  504  0.69303425824E+01 -0.12649753641E+02  0.31564161505E+03  0.36064970105E+03  0.17386929515E+03 0.  0.
        -24    2    3    3    0    0 -0.47696350149E+02 -0.50139323485E+01  0.27889970358E+03  0.29420845344E+03  0.80457989547E+02 0.  0.
          6    2    1    2  502    0 -0.69303425824E+01  0.12649753641E+02  0.21595028935E+03  0.27914129786E+03  0.17628752305E+03 0.  0.
         24    2    5    5    0    0  0.12636978556E+01  0.77618595502E+02  0.13104737195E+03  0.17181614659E+03  0.79505542164E+02 0.  0.
          2    1    6    6  501    0 -0.20143480630E+02  0.77214221460E+02  0.12705533405E+03  0.15003617470E+03  0.00000000000E+00 0. -1.
         -1    1    6    6    0  501  0.21407178486E+02  0.40437404203E+00  0.39920378997E+01  0.21779971894E+02  0.00000000000E+00 0.  1.
          5    1    5    5  502    0 -0.81940404380E+01 -0.64968841861E+02  0.84902917402E+02  0.10732515127E+03  0.47000000000E+01 0. -1.
         13    1    4    4    0    0 -0.43105863446E+02 -0.30784298077E+02  0.97768588414E+02  0.11119570744E+03  0.00000000000E+00 0. -1.
        -14    1    4    4    0    0 -0.45904867022E+01  0.25770365729E+02  0.18113111516E+03  0.18301274600E+03  0.00000000000E+00 0.  1.
         -5    1    3    3    0  504  0.54626692731E+02 -0.76358212928E+01  0.36741911475E+02  0.66441247613E+02  0.47000000000E+01 0.  1.
<mgrwt>
<rscale>  2 0.17627100E+03</rscale>
<asrwt>0</asrwt>
<pdfrwt beam="1">  1       21 0.90106373E-01 0.17687661E+03</pdfrwt>
<pdfrwt beam="2">  1       21 0.83230077E-02 0.17687661E+03</pdfrwt>
<totfact> 0.11805871E+05</totfact>
</mgrwt>
</event>
<event>
12    1  0.2791583E-001  0.2186193E+03  0.7546771E-02  0.1135109E+00
         21   -1    0    0  502  503  0.00000000000E+00  0.00000000000E+00  0.15508001154E+04  0.15508001154E+04  0.00000000000E+00 0.  1.
         21   -1    0    0  503  504 -0.00000000000E+00 -0.00000000000E+00 -0.90701260447E+02  0.90701260447E+02  0.00000000000E+00 0.  1.
         -6    2    1    2    0  504  0.12147833273E+03 -0.49011294707E+02  0.61786395026E+02  0.22620206685E+03  0.17375478154E+03 0.  0.
        -24    2    3    3    0    0  0.77191614782E+02 -0.76236567863E+02  0.93580353636E+02  0.16508353702E+03  0.82004462903E+02 0.  0.
          6    2    1    2  502    0 -0.12147833273E+03  0.49011294707E+02  0.13983124599E+04  0.14152993090E+04  0.17502944358E+03 0.  0.
         24    2    5    5    0    0 -0.30962412929E+02  0.66887665260E+02  0.10236532433E+04  0.10294180903E+04  0.80018818244E+02 0.  0.
          2    1    6    6  501    0  0.22761133996E+02  0.18639257766E+02  0.49265270614E+03  0.49353032330E+03  0.00000000000E+00 0. -1.
         -1    1    6    6    0  501 -0.53723546925E+02  0.48248407494E+02  0.53100053718E+03  0.53588776699E+03  0.00000000000E+00 0.  1.
          5    1    5    5  502    0 -0.90515919800E+02 -0.17876370554E+02  0.37465921658E+03  0.38588121868E+03  0.47000000000E+01 0. -1.
         13    1    4    4    0    0 -0.45390324172E+01 -0.18095412413E+01  0.43420392804E+02  0.43694482101E+02  0.00000000000E+00 0. -1.
        -14    1    4    4    0    0  0.81730647199E+02 -0.74427026622E+02  0.50159960831E+02  0.12138905492E+03  0.00000000000E+00 0.  1.
         -5    1    3    3    0  504  0.44286717947E+02  0.27225273156E+02 -0.31793958610E+02  0.61118529834E+02  0.47000000000E+01 0.  1.
<mgrwt>
<rscale>  2 0.21836406E+03</rscale>
<asrwt>0</asrwt>
<pdfrwt beam="1">  1       21 0.23858461E+00 0.21861930E+03</pdfrwt>
<pdfrwt beam="2">  1       21 0.13954041E-01 0.21861930E+03</pdfrwt>
<totfact> 0.33846919E+03</totfact>
</mgrwt>
</event>
<event>
12    1  0.2791583E-001  0.3310626E+03  0.7546771E-02  0.1070786E+00
         21   -1    0    0  502  503  0.00000000000E+00  0.00000000000E+00  0.96695313167E+03  0.96695313167E+03  0.00000000000E+00 0. -1.
         21   -1    0    0  503  504 -0.00000000000E+00 -0.00000000000E+00 -0.44579857025E+03  0.44579857025E+03  0.00000000000E+00 0.  1.
         -6    2    1    2    0  504  0.21862580863E+03 -0.17849553547E+03 -0.34965262534E+03  0.48151778296E+03  0.17304483960E+03 0.  0.
        -24    2    3    3    0    0  0.14061563321E+03 -0.17405617394E+03 -0.22115636690E+03  0.33105624690E+03  0.10305237504E+03 0.  0.
          6    2    1    2  502    0 -0.21862580863E+03  0.17849553547E+03  0.87080718676E+03  0.93123391897E+03  0.17097822943E+03 0.  0.
         24    2    5    5    0    0 -0.91143510667E+02  0.15283285064E+03  0.59613325244E+03  0.62729614592E+03  0.80377734839E+02 0.  0.
          4    1    6    6  501    0 -0.40571258803E+02  0.12382726796E+03  0.47969657983E+03  0.49707949870E+03  0.00000000000E+00 0. -1.
         -3    1    6    6    0  501 -0.50572251864E+02  0.29005582684E+02  0.11643667260E+03  0.13021664722E+03  0.00000000000E+00 0.  1.
          5    1    5    5  502    0 -0.12748229796E+03  0.25662684835E+02  0.27467393433E+03  0.30393777305E+03  0.47000000000E+01 0. -1.
         13    1    4    4    0    0  0.58691867870E+02 -0.93674412419E+02 -0.41924078584E+02  0.11822545945E+03  0.00000000000E+00 0. -1.
        -14    1    4    4    0    0  0.81923765342E+02 -0.80381761517E+02 -0.17923228831E+03  0.21283078745E+03  0.00000000000E+00 0.  1.
         -5    1    3    3    0  504  0.78010175418E+02 -0.44393615375E+01 -0.12849625844E+03  0.15046153606E+03  0.47000000000E+01 0.  1.
<mgrwt>
<rscale>  2 0.33079335E+03</rscale>
<asrwt>0</asrwt>
<pdfrwt beam="1">  1       21 0.14876202E+00 0.33106256E+03</pdfrwt>
<pdfrwt beam="2">  1       21 0.68584396E-01 0.33106256E+03</pdfrwt>
<totfact> 0.52612639E+02</totfact>
</mgrwt>
</event>
<event>
12    1  0.2791583E-001  0.3045401E+03  0.7546771E-02  0.1083183E+00
         21   -1    0    0  502  503  0.00000000000E+00  0.00000000000E+00  0.15231348604E+03  0.15231348604E+03  0.00000000000E+00 0. -1.
         21   -1    0    0  503  504 -0.00000000000E+00 -0.00000000000E+00 -0.71651014805E+03  0.71651014805E+03  0.00000000000E+00 0. -1.
         -6    2    1    2    0  504  0.49498335277E+02  0.24516311468E+03 -0.11195725003E+03  0.32446743299E+03  0.17375169421E+03 0.  0.
        -24    2    3    3    0    0  0.29976962825E+02  0.48157378661E+02 -0.76861383538E+02  0.12335514134E+03  0.78045289386E+02 0.  0.
          6    2    1    2  502    0 -0.49498335277E+02 -0.24516311468E+03 -0.45223941198E+03  0.54435620111E+03  0.17102090498E+03 0.  0.
         24    2    5    5    0    0 -0.92963841389E+02 -0.21966217214E+03 -0.36875579462E+03  0.44672857869E+03  0.81803675195E+02 0.  0.
          2    1    6    6  501    0 -0.68854086010E+02 -0.20860593605E+03 -0.35330957569E+03  0.41603482785E+03  0.00000000000E+00 0. -1.
         -1    1    6    6    0  501 -0.24109755379E+02 -0.11056236089E+02 -0.15446218933E+02  0.30693750833E+02  0.00000000000E+00 0.  1.
          5    1    5    5  502    0  0.43465506112E+02 -0.25500942545E+02 -0.83483617363E+02  0.97627622424E+02  0.47000000000E+01 0. -1.
         11    1    4    4    0    0  0.17762457949E+02  0.68496871973E+02 -0.67672139691E+02  0.97912434720E+02  0.00000000000E+00 0. -1.
        -12    1    4    4    0    0  0.12214504876E+02 -0.20339493312E+02 -0.91892438471E+01  0.25442706617E+02  0.00000000000E+00 0.  1.
         -5    1    3    3    0  504  0.19521372452E+02  0.19700573602E+03 -0.35095866488E+02  0.20111229165E+03  0.47000000000E+01 0.  1.
<mgrwt>
<rscale>  2 0.30415196E+03</rscale>
<asrwt>0</asrwt>
<pdfrwt beam="1">  1       21 0.23432844E-01 0.30454013E+03</pdfrwt>
<pdfrwt beam="2">  1       21 0.11023233E+00 0.30454013E+03</pdfrwt>
<totfact> 0.10440521E+04</totfact>
</mgrwt>
</event>
<event>
12    1  0.2791583E-001  0.2454841E+03  0.7546771E-02  0.1116286E+00
         21   -1    0    0  502  503  0.00000000000E+00  0.00000000000E+00  0.13825547913E+03  0.13825547913E+03  0.00000000000E+00 0.  1.
         21   -1    0    0  503  504 -0.00000000000E+00 -0.00000000000E+00 -0.49593372152E+03  0.49593372152E+03  0.00000000000E+00 0. -1.
         -6    2    1    2    0  504  0.17211270687E+03 -0.15470980837E+02 -0.28993701826E+03  0.37953003149E+03  0.17354375568E+03 0.  0.
        -24    2    3    3    0    0  0.60370299180E+02 -0.65326898589E+02 -0.16692592802E+03  0.20596218732E+03  0.81510615608E+02 0.  0.
          6    2    1    2  502    0 -0.17211270687E+03  0.15470980837E+02 -0.67741224139E+02  0.25465916916E+03  0.17435677181E+03 0.  0.
         24    2    5    5    0    0 -0.52676606037E+02 -0.21498083148E+02  0.38011582526E+02  0.90837803057E+02  0.59746411235E+02 0.  0.
          4    1    6    6  501    0 -0.17460933791E+02 -0.38842539361E+02  0.25497407542E+02  0.49636124589E+02  0.00000000000E+00 0. -1.
         -3    1    6    6    0  501 -0.35215672246E+02  0.17344456213E+02  0.12514174984E+02  0.41201678468E+02  0.00000000000E+00 0.  1.
          5    1    5    5  502    0 -0.11943610083E+03  0.36969063986E+02 -0.10575280666E+03  0.16382136610E+03  0.47000000000E+01 0. -1.
         11    1    4    4    0    0  0.79050137997E+02 -0.42199748543E+02 -0.13758189308E+03  0.16419050032E+03  0.00000000000E+00 0. -1.
        -12    1    4    4    0    0 -0.18679838817E+02 -0.23127150046E+02 -0.29344034946E+02  0.41771686994E+02  0.00000000000E+00 0.  1.
         -5    1    3    3    0  504  0.11174240769E+03  0.49855917752E+02 -0.12301109024E+03  0.17356784417E+03  0.47000000000E+01 0.  1.
<mgrwt>
<rscale>  2 0.24533973E+03</rscale>
<asrwt>0</asrwt>
<pdfrwt beam="1">  1       21 0.21270073E-01 0.24548405E+03</pdfrwt>
<pdfrwt beam="2">  1       21 0.76297497E-01 0.24548405E+03</pdfrwt>
<totfact> 0.30634475E+04</totfact>
</mgrwt>
</event>
<event>
12    1  0.2791583E-001  0.2481722E+03  0.7546771E-02  0.1114484E+00
         21   -1    0    0  502  503  0.00000000000E+00  0.00000000000E+00  0.17260375044E+03  0.17260375044E+03  0.00000000000E+00 0. -1.
         21   -1    0    0  503  504 -0.00000000000E+00 -0.00000000000E+00 -0.47376767588E+03  0.47376767588E+03  0.00000000000E+00 0.  1.
         -6    2    1    2    0  504  0.29530652628E+02 -0.17584082742E+03 -0.31128718141E+03  0.39810694275E+03  0.17261915458E+03 0.  0.
        -24    2    3    3    0    0  0.70431899456E+02 -0.49671361473E+02 -0.14014989909E+03  0.18153892681E+03  0.76723471777E+02 0.  0.
          6    2    1    2  502    0 -0.29530652628E+02  0.17584082742E+03  0.10123255974E+02  0.24826448356E+03  0.17245497225E+03 0.  0.
         24    2    5    5    0    0 -0.82395593554E+02  0.89387026493E+02  0.92932178993E+01  0.14681626703E+03  0.81789840593E+02 0.  0.
          2    1    6    6  501    0 -0.94772924010E+02  0.87042818024E+02  0.20073922968E+02  0.13023563905E+03  0.00000000000E+00 0. -1.
         -1    1    6    6    0  501  0.12377330457E+02  0.23442084683E+01 -0.10780705069E+02  0.16580627984E+02  0.00000000000E+00 0.  1.
          5    1    5    5  502    0  0.52864940926E+02  0.86453800928E+02  0.83003807461E+00  0.10144821653E+03  0.47000000000E+01 0. -1.
         11    1    4    4    0    0  0.16460763486E+02 -0.58408349090E+02 -0.75814662326E+02  0.97110014940E+02  0.00000000000E+00 0. -1.
        -12    1    4    4    0    0  0.53971135969E+02  0.87369876171E+01 -0.64335236765E+02  0.84428911873E+02  0.00000000000E+00 0.  1.
         -5    1    3    3    0  504 -0.40901246828E+02 -0.12616946595E+03 -0.17113728232E+03  0.21656801594E+03  0.47000000000E+01 0.  1.
<mgrwt>
<rscale>  2 0.24814363E+03</rscale>
<asrwt>0</asrwt>
<pdfrwt beam="1">  1       21 0.26554424E-01 0.24817218E+03</pdfrwt>
<pdfrwt beam="2">  1       21 0.72887334E-01 0.24817218E+03</pdfrwt>
<totfact> 0.22188049E+04</totfact>
</mgrwt>
</event>
<event>
12    1  0.2791583E-001  0.1992739E+03  0.7546771E-02  0.1151143E+00
         21   -1    0    0  502  503  0.00000000000E+00  0.00000000000E+00  0.10393670604E+03  0.10393670604E+03  0.00000000000E+00 0.  1.
         21   -1    0    0  503  504 -0.00000000000E+00 -0.00000000000E+00 -0.53637677803E+03  0.53637677803E+03  0.00000000000E+00 0.  1.
         -6    2    1    2    0  504  0.11928339440E+02 -0.87145457275E+02 -0.39322567173E+03  0.44083616863E+03  0.17881130462E+03 0.  0.
        -24    2    3    3    0    0  0.51550161524E+02  0.86231761196E+01 -0.19663969660E+03  0.21855334081E+03  0.79791065783E+02 0.  0.
          6    2    1    2  502    0 -0.11928339440E+02  0.87145457275E+02 -0.39214400262E+02  0.19947731544E+03  0.17469062419E+03 0.  0.
         24    2    5    5    0    0 -0.18799623043E+02  0.12852206594E+03 -0.36173952880E+02  0.15716215736E+03  0.80746774405E+02 0.  0.
          2    1    6    6  501    0  0.16370307757E+02  0.10356042429E+03 -0.69717648826E+01  0.10507784714E+03  0.00000000000E+00 0. -1.
         -1    1    6    6    0  501 -0.35169930800E+02  0.24961641658E+02 -0.29202187997E+02  0.52084310215E+02  0.00000000000E+00 0.  1.
          5    1    5    5  502    0  0.68712836026E+01 -0.41376608668E+02 -0.30404473826E+01  0.42315158082E+02  0.47000000000E+01 0. -1.
         13    1    4    4    0    0 -0.16809907369E+02  0.14273558396E+02 -0.23036303049E+02  0.31890103687E+02  0.00000000000E+00 0. -1.
        -14    1    4    4    0    0  0.68360068893E+02 -0.56503822763E+01 -0.17360339356E+03  0.18666323712E+03  0.00000000000E+00 0.  1.
         -5    1    3    3    0  504 -0.39621822084E+02 -0.95768633394E+02 -0.19658597512E+03  0.22228282782E+03  0.47000000000E+01 0.  1.
<mgrwt>
<rscale>  2 0.19834518E+03</rscale>
<asrwt>0</asrwt>
<pdfrwt beam="1">  1       21 0.15990262E-01 0.19927393E+03</pdfrwt>
<pdfrwt beam="2">  1       21 0.82519507E-01 0.19927393E+03</pdfrwt>
<totfact> 0.44598310E+04</totfact>
</mgrwt>
</event>
<event>
12    1  0.2791583E-001  0.2144813E+03  0.7546771E-02  0.1138413E+00
         21   -1    0    0  502  503  0.00000000000E+00  0.00000000000E+00  0.19253813054E+03  0.19253813054E+03  0.00000000000E+00 0.  1.
         21   -1    0    0  503  504 -0.00000000000E+00 -0.00000000000E+00 -0.23924302027E+03  0.23924302027E+03  0.00000000000E+00 0.  1.
         -6    2    1    2    0  504  0.11920617180E+03  0.33712827003E+02 -0.44669405350E+02  0.21908348671E+03  0.17508727046E+03 0.  0.
        -24    2    3    3    0    0  0.10566066688E+03  0.99689815091E+01  0.32445149657E+02  0.13713230920E+03  0.80554486971E+02 0.  0.
          6    2    1    2  502    0 -0.11920617180E+03 -0.33712827003E+02 -0.20354843789E+01  0.21269766410E+03  0.17288576291E+03 0.  0.
         24    2    5    5    0    0 -0.15878430598E+02  0.31212244892E+02 -0.20235417711E+02  0.89226150645E+02  0.79533043696E+02 0.  0.
          2    1    6    6  501    0  0.71615622020E+01 -0.24314265143E+02 -0.13542284123E+02  0.28737865646E+02  0.00000000000E+00 0. -1.
         -1    1    6    6    0  501 -0.23039992800E+02  0.55526510035E+02 -0.66931335883E+01  0.60488284999E+02  0.00000000000E+00 0.  1.
          5    1    5    5  502    0 -0.10332774120E+03 -0.64925071895E+02  0.18199933332E+02  0.12347151346E+03  0.47000000000E+01 0. -1.
         11    1    4    4    0    0  0.38802706276E+02  0.16424554681E+02 -0.24788393793E+02  0.48886403812E+02  0.00000000000E+00 0. -1.
        -12    1    4    4    0    0  0.66857960608E+02 -0.64555731724E+01  0.57233543450E+02  0.88245905386E+02  0.00000000000E+00 0.  1.
         -5    1    3    3    0  504  0.13545504912E+02  0.23743845494E+02 -0.77114555006E+02  0.81951177514E+02  0.47000000000E+01 0.  1.
<mgrwt>
<rscale>  2 0.21403153E+03</rscale>
<asrwt>0</asrwt>
<pdfrwt beam="1">  1       21 0.29621251E-01 0.21448128E+03</pdfrwt>
<pdfrwt beam="2">  1       21 0.36806619E-01 0.21448128E+03</pdfrwt>
<totfact> 0.77041060E+04</totfact>
</mgrwt>
</event>
<event>
12    1  0.2791583E-001  0.1916478E+03  0.7546771E-02  0.1157144E+00
         21   -1    0    0  502  503  0.00000000000E+00  0.00000000000E+00  0.75862300345E+03  0.75862300345E+03  0.00000000000E+00 0. -1.
         21   -1    0    0  503  504 -0.00000000000E+00 -0.00000000000E+00 -0.26334539109E+03  0.26334539109E+03  0.00000000000E+00 0. -1.
         -6    2    1    2    0  504 -0.13778548510E+02  0.79673842526E+02 -0.21426943527E+03  0.28699499506E+03  0.17296521822E+03 0.  0.
        -24    2    3    3    0    0 -0.13530698536E+02 -0.26180238065E+02 -0.86052973899E+02  0.12066189921E+03  0.79282374689E+02 0.  0.
          6    2    1    2  502    0  0.13778548510E+02 -0.79673842526E+02  0.70954704763E+03  0.73497339948E+03  0.17375590799E+03 0.  0.
         24    2    5    5    0    0 -0.36235458649E+02 -0.15969943349E+02  0.53607420370E+03  0.54346751115E+03  0.80083308209E+02 0.  0.
          4    1    6    6  501    0 -0.53157728549E+02 -0.25257076698E+02  0.25380895860E+03  0.26054299356E+03  0.00000000000E+00 0. -1.
         -3    1    6    6    0  501  0.16922269900E+02  0.92871333491E+01  0.28226524510E+03  0.28292451759E+03  0.00000000000E+00 0.  1.
          5    1    5    5  502    0  0.50014007159E+02 -0.63703899177E+02  0.17347284394E+03  0.19150588833E+03  0.47000000000E+01 0. -1.
         11    1    4    4    0    0 -0.27097780301E+02  0.73546286743E+01 -0.78952089814E+02  0.83796257352E+02  0.00000000000E+00 0. -1.
        -12    1    4    4    0    0  0.13567081765E+02 -0.33534866740E+02 -0.71008840848E+01  0.36865641859E+02  0.00000000000E+00 0.  1.
         -5    1    3    3    0  504 -0.24784997397E+00  0.10585408059E+03 -0.12821646137E+03  0.16633309585E+03  0.47000000000E+01 0.  1.
<mgrwt>
<rscale>  2 0.19146842E+03</rscale>
<asrwt>0</asrwt>
<pdfrwt beam="1">  1       21 0.11671123E+00 0.19164782E+03</pdfrwt>
<pdfrwt beam="2">  1       21 0.40514676E-01 0.19164782E+03</pdfrwt>
<totfact> 0.33223517E+03</totfact>
</mgrwt>
</event>
<event>
12    1  0.2791583E-001  0.2936931E+03  0.7546771E-02  0.1088574E+00
         21   -1    0    0  502  503  0.00000000000E+00  0.00000000000E+00  0.51899315985E+03  0.51899315985E+03  0.00000000000E+00 0. -1.
         21   -1    0    0  503  504 -0.00000000000E+00 -0.00000000000E+00 -0.39608069627E+03  0.39608069627E+03  0.00000000000E+00 0. -1.
         -6    2    1    2    0  504 -0.20368208640E+03 -0.12019675001E+03 -0.28752320806E+03  0.41100517615E+03  0.17413215847E+03 0.  0.
        -24    2    3    3    0    0 -0.26130632296E+02 -0.21696539194E+02 -0.11089561856E+03  0.14184684773E+03  0.81664804146E+02 0.  0.
          6    2    1    2  502    0  0.20368208640E+03  0.12019675001E+03  0.41043567164E+03  0.50406867997E+03  0.17231988433E+03 0.  0.
         24    2    5    5    0    0  0.89086191790E+02  0.12807084164E+03  0.26087978832E+03  0.31543339001E+03  0.84270217361E+02 0.  0.
          4    1    6    6  501    0  0.83167657643E+02  0.71845624247E+02  0.21915263444E+03  0.24516633167E+03  0.00000000000E+00 0. -1.
         -3    1    6    6    0  501  0.59185341466E+01  0.56225217392E+02  0.41727153878E+02  0.70267058342E+02  0.00000000000E+00 0.  1.
          5    1    5    5  502    0  0.11459589461E+03 -0.78740916255E+01  0.14955588332E+03  0.18863528996E+03  0.47000000000E+01 0. -1.
         11    1    4    4    0    0 -0.40576266774E+02 -0.15472861034E+01 -0.10975783026E+03  0.11702823943E+03  0.00000000000E+00 0. -1.
        -12    1    4    4    0    0  0.14445634478E+02 -0.20149253090E+02 -0.11377882984E+01  0.24818608297E+02  0.00000000000E+00 0.  1.
         -5    1    3    3    0  504 -0.17755145411E+03 -0.98500210820E+02 -0.17662758950E+03  0.26915832842E+03  0.47000000000E+01 0.  1.
<mgrwt>
<rscale>  2 0.29342505E+03</rscale>
<asrwt>0</asrwt>
<pdfrwt beam="1">  1       21 0.79845102E-01 0.29369314E+03</pdfrwt>
<pdfrwt beam="2">  1       21 0.60935491E-01 0.29369314E+03</pdfrwt>
<totfact> 0.32298691E+03</totfact>
</mgrwt>
</event>
<event>
12    1  0.2791583E-001  0.3128327E+03  0.7546771E-02  0.1079300E+00
         21   -1    0    0  502  503  0.00000000000E+00  0.00000000000E+00  0.26289452678E+03  0.26289452678E+03  0.00000000000E+00 0.  1.
         21   -1    0    0  503  504 -0.00000000000E+00 -0.00000000000E+00 -0.69716321349E+03  0.69716321349E+03  0.00000000000E+00 0. -1.
         -6    2    1    2    0  504  0.23476575021E+03 -0.11173140632E+03 -0.54683217837E+03  0.62999182823E+03  0.17396955973E+03 0.  0.
        -24    2    3    3    0    0  0.17910996626E+03 -0.24354867647E+02 -0.26865737029E+03  0.33311552462E+03  0.78202497017E+02 0.  0.
          6    2    1    2  502    0 -0.23476575021E+03  0.11173140632E+03  0.11256349166E+03  0.33006591203E+03  0.16933429068E+03 0.  0.
         24    2    5    5    0    0 -0.21739640899E+03  0.14195083222E+03  0.83279480608E+02  0.28429964695E+03  0.80495838136E+02 0.  0.
          4    1    6    6  501    0 -0.15799217169E+03  0.63245999249E+02  0.32026797765E+02  0.17316841083E+03  0.00000000000E+00 0. -1.
         -3    1    6    6    0  501 -0.59404237299E+02  0.78704832972E+02  0.51252682842E+02  0.11113123612E+03  0.00000000000E+00 0.  1.
          5    1    5    5  502    0 -0.17369341224E+02 -0.30219425899E+02  0.29284011049E+02  0.45766265080E+02  0.47000000000E+01 0. -1.
         11    1    4    4    0    0  0.90450083120E+02  0.13496191434E+02 -0.18112685134E+03  0.20290465986E+03  0.00000000000E+00 0. -1.
        -12    1    4    4    0    0  0.88659883142E+02 -0.37851059080E+02 -0.87530518954E+02  0.13021086476E+03  0.00000000000E+00 0.  1.
         -5    1    3    3    0  504  0.55655783949E+02 -0.87376538675E+02 -0.27817480807E+03  0.29687630361E+03  0.47000000000E+01 0.  1.
<mgrwt>
<rscale>  2 0.31219224E+03</rscale>
<asrwt>0</asrwt>
<pdfrwt beam="1">  1       21 0.40445312E-01 0.31283266E+03</pdfrwt>
<pdfrwt beam="2">  1       21 0.10725588E+00 0.31283266E+03</pdfrwt>
<totfact> 0.37777946E+03</totfact>
</mgrwt>
</event>
<event>
12    1  0.2791583E-001  0.2447252E+03  0.7546771E-02  0.1118312E+00
         21   -1    0    0  502  503  0.00000000000E+00  0.00000000000E+00  0.24788222619E+03  0.24788222619E+03  0.00000000000E+00 0.  1.
         21   -1    0    0  503  504 -0.00000000000E+00 -0.00000000000E+00 -0.25190691411E+03  0.25190691411E+03  0.00000000000E+00 0. -1.
         -6    2    1    2    0  504 -0.16316445360E+03  0.21365253515E+02 -0.72165491447E+02  0.24575448874E+03  0.16765529399E+03 0.  0.
        -24    2    3    3    0    0 -0.33215227981E+02  0.31124855841E+02 -0.70063773473E+02  0.11533762520E+03  0.79509920217E+02 0.  0.
          6    2    1    2  502    0  0.16316445360E+03 -0.21365253515E+02  0.68140803531E+02  0.25403465156E+03  0.18113895801E+03 0.  0.
         24    2    5    5    0    0  0.98599288382E+02 -0.37518927265E+02  0.11262824536E+03  0.17384223162E+03  0.80040678830E+02 0.  0.
          2    1    6    6  501    0  0.53029609796E+01 -0.37433716522E+02  0.44066689361E+02  0.58062704372E+02  0.00000000000E+00 0. -1.
         -1    1    6    6    0  501  0.93296327402E+02 -0.85210742869E-01  0.68561556002E+02  0.11577952725E+03  0.00000000000E+00 0.  1.
          5    1    5    5  502    0  0.64565165221E+02  0.16153673749E+02 -0.44487441832E+02  0.80192419943E+02  0.47000000000E+01 0. -1.
         13    1    4    4    0    0 -0.52100780095E+02  0.44168373957E+02 -0.47850916098E+02  0.83396922701E+02  0.00000000000E+00 0. -1.
        -14    1    4    4    0    0  0.18885552114E+02 -0.13043518116E+02 -0.22212857374E+02  0.31940702501E+02  0.00000000000E+00 0.  1.
         -5    1    3    3    0  504 -0.12994922562E+03 -0.97596023254E+01 -0.21017179746E+01  0.13041686354E+03  0.47000000000E+01 0.  1.
<mgrwt>
<rscale>  2 0.24223620E+03</rscale>
<asrwt>0</asrwt>
<pdfrwt beam="1">  1       21 0.38135727E-01 0.24472522E+03</pdfrwt>
<pdfrwt beam="2">  1       21 0.38754910E-01 0.24472522E+03</pdfrwt>
<totfact> 0.41543416E+04</totfact>
</mgrwt>
</event>
<event>
12    1  0.2791583E-001  0.2750007E+03  0.7546771E-02  0.1098496E+00
         21   -1    0    0  502  503  0.00000000000E+00  0.00000000000E+00  0.34498007805E+03  0.34498007805E+03  0.00000000000E+00 0. -1.
         21   -1    0    0  503  504 -0.00000000000E+00 -0.00000000000E+00 -0.24169641770E+03  0.24169641770E+03  0.00000000000E+00 0. -1.
         -6    2    1    2    0  504  0.21195479956E+03  0.20169339035E+01  0.14158079941E+03  0.30902193486E+03  0.17470125466E+03 0.  0.
        -24    2    3    3    0    0  0.13079321160E+03  0.18730801684E+02  0.12699634935E+02  0.15572809514E+03  0.81438637990E+02 0.  0.
          6    2    1    2  502    0 -0.21195479956E+03 -0.20169339035E+01 -0.38297139073E+02  0.27765456089E+03  0.17520410738E+03 0.  0.
         24    2    5    5    0    0 -0.10047919970E+03  0.49729568125E+02  0.20180026399E+02  0.14147020526E+03  0.83889725190E+02 0.  0.
          4    1    6    6  501    0 -0.11339877423E+03  0.31532890180E+02  0.16504442638E+02  0.11885285771E+03  0.00000000000E+00 0. -1.
         -3    1    6    6    0  501  0.12919574526E+02  0.18196677945E+02  0.36755837611E+01  0.22617347549E+02  0.00000000000E+00 0.  1.
          5    1    5    5  502    0 -0.11147559986E+03 -0.51746502029E+02 -0.58477165473E+02  0.13618435563E+03  0.47000000000E+01 0. -1.
         11    1    4    4    0    0  0.14196439633E+03  0.13861458126E+02  0.87094110954E+01  0.14290515627E+03  0.00000000000E+00 0. -1.
        -12    1    4    4    0    0 -0.11171184734E+02  0.48693435584E+01  0.39902238395E+01  0.12822938873E+02  0.00000000000E+00 0.  1.
         -5    1    3    3    0  504  0.81161587964E+02 -0.16713867781E+02  0.12888116448E+03  0.15329383972E+03  0.47000000000E+01 0.  1.
<mgrwt>
<rscale>  2 0.27492064E+03</rscale>
<asrwt>0</asrwt>
<pdfrwt beam="1">  1       21 0.53073858E-01 0.27500070E+03</pdfrwt>
<pdfrwt beam="2">  1       21 0.37184064E-01 0.27500070E+03</pdfrwt>
<totfact> 0.22500422E+04</totfact>
</mgrwt>
</event>
<event>
12    1  0.2791583E-001  0.2472705E+03  0.7546771E-02  0.1115303E+00
         21   -1    0    0  502  503  0.00000000000E+00  0.00000000000E+00  0.18222078289E+04  0.18222078289E+04  0.00000000000E+00 0. -1.
         21   -1    0    0  503  504 -0.00000000000E+00 -0.00000000000E+00 -0.41466136478E+02  0.41466136478E+02  0.00000000000E+00 0. -1.
         -6    2    1    2    0  504  0.96440533312E+02 -0.14446529340E+03  0.47534668403E+03  0.53506610401E+03  0.17369590719E+03 0.  0.
        -24    2    3    3    0    0  0.26106676537E+02 -0.14023829614E+03  0.24945528671E+03  0.29839389968E+03  0.80390553168E+02 0.  0.
          6    2    1    2  502    0 -0.96440533312E+02  0.14446529340E+03  0.13053950084E+04  0.13286078614E+04  0.17598785158E+03 0.  0.
         24    2    5    5    0    0 -0.68134380937E+00  0.52694786103E+02  0.31547163739E+03  0.32982759583E+03  0.80539954440E+02 0.  0.
          4    1    6    6  501    0  0.40914307071E+01  0.53888240726E+02  0.94963478903E+02  0.10926456250E+03  0.00000000000E+00 0. -1.
         -3    1    6    6    0  501 -0.47727745164E+01 -0.11934546231E+01  0.22050815849E+03  0.22056303333E+03  0.00000000000E+00 0.  1.
          5    1    5    5  502    0 -0.95759189503E+02  0.91770507292E+02  0.98992337100E+03  0.99878026554E+03  0.47000000000E+01 0. -1.
         13    1    4    4    0    0  0.42075710196E+02 -0.12570395154E+03  0.24129741731E+03  0.27531126461E+03  0.00000000000E+00 0. -1.
        -14    1    4    4    0    0 -0.15969033659E+02 -0.14534344596E+02  0.81578694017E+01  0.23082635075E+02  0.00000000000E+00 0.  1.
         -5    1    3    3    0  504  0.70333856775E+02 -0.42269972594E+01  0.22589139732E+03  0.23667220432E+03  0.47000000000E+01 0.  1.
<mgrwt>
<rscale>  2 0.24686305E+03</rscale>
<asrwt>0</asrwt>
<pdfrwt beam="1">  1       21 0.28033960E+00 0.24727054E+03</pdfrwt>
<pdfrwt beam="2">  1       21 0.63794070E-02 0.24727054E+03</pdfrwt>
<totfact> 0.74664609E+03</totfact>
</mgrwt>
</event>
<event>
12    1  0.2791583E-001  0.1883719E+03  0.7546771E-02  0.1159943E+00
         21   -1    0    0  502  503  0.00000000000E+00  0.00000000000E+00  0.61250758318E+02  0.61250758318E+02  0.00000000000E+00 0.  1.
         21   -1    0    0  503  504 -0.00000000000E+00 -0.00000000000E+00 -0.71684596498E+03  0.71684596498E+03  0.00000000000E+00 0. -1.
         -6    2    1    2    0  504 -0.72571818070E+02 -0.21243215813E+02 -0.49822684146E+03  0.53264045153E+03  0.17250484650E+03 0.  0.
        -24    2    3    3    0    0 -0.95419618875E+02 -0.49230252730E+02 -0.46313568792E+03  0.48205611311E+03  0.79717685081E+02 0.  0.
          6    2    1    2  502    0  0.72571818070E+02  0.21243215813E+02 -0.15736836520E+03  0.24545627176E+03  0.17252836284E+03 0.  0.
         24    2    5    5    0    0  0.52978880784E+02 -0.19718799988E+02 -0.17124547651E+03  0.19774428010E+03  0.81130722940E+02 0.  0.
          4    1    6    6  501    0 -0.18859114122E+02  0.55952345593E+01 -0.18231111877E+02  0.26820631527E+02  0.00000000000E+00 0. -1.
         -3    1    6    6    0  501  0.71837994907E+02 -0.25314034547E+02 -0.15301436463E+03  0.17092364857E+03  0.00000000000E+00 0.  1.
          5    1    5    5  502    0  0.19592937285E+02  0.40962015801E+02  0.13877111309E+02  0.47711991660E+02  0.47000000000E+01 0. -1.
         11    1    4    4    0    0 -0.20717611405E+02 -0.55026186571E+02 -0.20150568796E+03  0.20990865374E+03  0.00000000000E+00 0. -1.
        -12    1    4    4    0    0 -0.74702007470E+02  0.57959338417E+01 -0.26162999995E+03  0.27214745938E+03  0.00000000000E+00 0.  1.
         -5    1    3    3    0  504  0.22847800805E+02  0.27987036917E+02 -0.35091153538E+02  0.50584338423E+02  0.47000000000E+01 0.  1.
<mgrwt>
<rscale>  2 0.18836653E+03</rscale>
<asrwt>0</asrwt>
<pdfrwt beam="1">  1       21 0.94231929E-02 0.18837192E+03</pdfrwt>
<pdfrwt beam="2">  1       21 0.11028400E+00 0.18837192E+03</pdfrwt>
<totfact> 0.58604756E+04</totfact>
</mgrwt>
</event>
<event>
12    1  0.2791583E-001  0.2155306E+03  0.7546771E-02  0.1137320E+00
         21   -1    0    0  502  503  0.00000000000E+00  0.00000000000E+00  0.77100516499E+03  0.77100516499E+03  0.00000000000E+00 0. -1.
         21   -1    0    0  503  504 -0.00000000000E+00 -0.00000000000E+00 -0.60165529776E+02  0.60165529776E+02  0.00000000000E+00 0. -1.
         -6    2    1    2    0  504  0.11929569870E+03  0.44714504264E+02  0.35227344202E+03  0.41281299376E+03  0.17345644768E+03 0.  0.
        -24    2    3    3    0    0  0.82751424145E+01 -0.23418225379E+02  0.12148346533E+03  0.14775878023E+03  0.80358780012E+02 0.  0.
          6    2    1    2  502    0 -0.11929569870E+03 -0.44714504264E+02  0.35856619320E+03  0.41835770101E+03  0.17384648536E+03 0.  0.
         24    2    5    5    0    0 -0.14868562323E+02  0.25721619748E+02  0.18173321585E+03  0.20119816000E+03  0.81062087149E+02 0.  0.
          4    1    6    6  501    0 -0.31294923226E+02  0.47882359529E+02  0.13929333899E+03  0.15058129652E+03  0.00000000000E+00 0. -1.
         -3    1    6    6    0  501  0.16426360902E+02 -0.22160739782E+02  0.42439876864E+02  0.50616863479E+02  0.00000000000E+00 0.  1.
          5    1    5    5  502    0 -0.10442713638E+03 -0.70436124012E+02  0.17683297734E+03  0.21715954101E+03  0.47000000000E+01 0. -1.
         11    1    4    4    0    0  0.38584985671E+02  0.82609999855E+01  0.67799168785E+02  0.78445984779E+02  0.00000000000E+00 0. -1.
        -12    1    4    4    0    0 -0.30309843256E+02 -0.31679225365E+02  0.53684296547E+02  0.69312795454E+02  0.00000000000E+00 0.  1.
         -5    1    3    3    0  504  0.11102055629E+03  0.68132729643E+02  0.23078997669E+03  0.26505421352E+03  0.47000000000E+01 0.  1.
<mgrwt>
<rscale>  2 0.21545196E+03</rscale>
<asrwt>0</asrwt>
<pdfrwt beam="1">  1       21 0.11861617E+00 0.21553063E+03</pdfrwt>
<pdfrwt beam="2">  1       21 0.92562359E-02 0.21553063E+03</pdfrwt>
<totfact> 0.49939309E+04</totfact>
</mgrwt>
</event>
<event>
12    1  0.2791583E-001  0.1765395E+03  0.7546771E-02  0.1171223E+00
         21   -1    0    0  502  503  0.00000000000E+00  0.00000000000E+00  0.79177180299E+02  0.79177180299E+02  0.00000000000E+00 0.  1.
         21   -1    0    0  503  504 -0.00000000000E+00 -0.00000000000E+00 -0.52267626963E+03  0.52267626963E+03  0.00000000000E+00 0.  1.
         -6    2    1    2    0  504 -0.28995757704E+02  0.15066043336E+02 -0.37148027097E+03  0.41129526003E+03  0.17348907623E+03 0.  0.
        -24    2    3    3    0    0 -0.30929561775E+02 -0.32571916590E+02 -0.10700606940E+03  0.14251689758E+03  0.82723634254E+02 0.  0.
          6    2    1    2  502    0  0.28995757704E+02 -0.15066043336E+02 -0.72018818357E+02  0.19055818990E+03  0.17337235626E+03 0.  0.
         24    2    5    5    0    0  0.56077237259E+02 -0.65319667922E+02 -0.44519120642E+02  0.12701956627E+03  0.82101781689E+02 0.  0.
          2    1    6    6  501    0  0.56895404199E+02 -0.18537423990E+02 -0.52438668360E+02  0.79564672101E+02  0.00000000000E+00 0. -1.
         -1    1    6    6    0  501 -0.81816694080E+00 -0.46782243932E+02  0.79195477180E+01  0.47454894168E+02  0.00000000000E+00 0.  1.
          5    1    5    5  502    0 -0.27081479554E+02  0.50253624586E+02 -0.27499697715E+02  0.63538623634E+02  0.47000000000E+01 0. -1.
         11    1    4    4    0    0 -0.98626545350E+01 -0.33093525944E+02 -0.11492797351E+03  0.12000371873E+03  0.00000000000E+00 0. -1.
        -12    1    4    4    0    0 -0.21066907240E+02  0.52160935337E+00  0.79219041103E+01  0.22513178845E+02  0.00000000000E+00 0.  1.
         -5    1    3    3    0  504  0.19338040702E+01  0.47637959926E+02 -0.26447420157E+03  0.26877836245E+03  0.47000000000E+01 0.  1.
<mgrwt>
<rscale>  2 0.17651083E+03</rscale>
<asrwt>0</asrwt>
<pdfrwt beam="1">  1       21 0.12181105E-01 0.17653951E+03</pdfrwt>
<pdfrwt beam="2">  1       21 0.80411733E-01 0.17653951E+03</pdfrwt>
<totfact> 0.78205118E+04</totfact>
</mgrwt>
</event>
<event>
12    1  0.2791583E-001  0.1945677E+03  0.7546771E-02  0.1155087E+00
         21   -1    0    0  502  503  0.00000000000E+00  0.00000000000E+00  0.75731058998E+02  0.75731058998E+02  0.00000000000E+00 0.  1.
         21   -1    0    0  503  504 -0.00000000000E+00 -0.00000000000E+00 -0.50153766388E+03  0.50153766388E+03  0.00000000000E+00 0. -1.
         -6    2    1    2    0  504  0.73001011512E+02  0.41647779719E+02 -0.25445987990E+03  0.32032235244E+03  0.17547904078E+03 0.  0.
        -24    2    3    3    0    0  0.99515930556E+02 -0.17056562206E+02 -0.18336942113E+03  0.22427453090E+03  0.80500769297E+02 0.  0.
          6    2    1    2  502    0 -0.73001011512E+02 -0.41647779719E+02 -0.17134672498E+03  0.25694637044E+03  0.17204084365E+03 0.  0.
         24    2    5    5    0    0 -0.10196888624E+03 -0.50155925332E+02 -0.17758417959E+03  0.22576108307E+03  0.80738189105E+02 0.  0.
          2    1    6    6  501    0 -0.51890801105E+01 -0.26574725253E+02 -0.65873922875E+01  0.27866401128E+02  0.00000000000E+00 0. -1.
         -1    1    6    6    0  501 -0.96779806134E+02 -0.23581200078E+02 -0.17099678731E+03  0.19789468194E+03  0.00000000000E+00 0.  1.
          5    1    5    5  502    0  0.28967874733E+02  0.85081456130E+01  0.62374546156E+01  0.31185287370E+02  0.47000000000E+01 0. -1.
         13    1    4    4    0    0  0.49505272733E+02 -0.43512724845E+02 -0.13338179005E+03  0.14877779125E+03  0.00000000000E+00 0. -1.
        -14    1    4    4    0    0  0.50010657823E+02  0.26456162640E+02 -0.49987631082E+02  0.75496739656E+02  0.00000000000E+00 0.  1.
         -5    1    3    3    0  504 -0.26514919044E+02  0.58704341925E+02 -0.71090458775E+02  0.96047821535E+02  0.47000000000E+01 0.  1.
<mgrwt>
<rscale>  2 0.19378923E+03</rscale>
<asrwt>0</asrwt>
<pdfrwt beam="1">  1       21 0.11650932E-01 0.19456767E+03</pdfrwt>
<pdfrwt beam="2">  1       21 0.77159643E-01 0.19456767E+03</pdfrwt>
<totfact> 0.92227572E+04</totfact>
</mgrwt>
</event>
<event>
12    1  0.2791583E-001  0.2069342E+03  0.7546771E-02  0.1144191E+00
         21   -1    0    0  502  503  0.00000000000E+00  0.00000000000E+00  0.43684479561E+03  0.43684479561E+03  0.00000000000E+00 0.  1.
         21   -1    0    0  503  504 -0.00000000000E+00 -0.00000000000E+00 -0.99571267666E+02  0.99571267666E+02  0.00000000000E+00 0. -1.
         -6    2    1    2    0  504  0.75785114371E+02 -0.82255913318E+02  0.13073712385E+03  0.24404802607E+03  0.17308328816E+03 0.  0.
        -24    2    3    3    0    0  0.44639813624E+02  0.24353085753E+02  0.43776560859E+02  0.10291072428E+03  0.78028482903E+02 0.  0.
          6    2    1    2  502    0 -0.75785114371E+02  0.82255913318E+02  0.20653640410E+03  0.29236803721E+03  0.17410446327E+03 0.  0.
         24    2    5    5    0    0 -0.10049335731E+03  0.87356812117E+01  0.12104295489E+03  0.17683907264E+03  0.80283458403E+02 0.  0.
          4    1    6    6  501    0 -0.70370005273E+02  0.28995293779E+02  0.11799110040E+03  0.14040856269E+03  0.00000000000E+00 0. -1.
         -3    1    6    6    0  501 -0.30123352037E+02 -0.20259612568E+02  0.30518544944E+01  0.36430509950E+02  0.00000000000E+00 0.  1.
          5    1    5    5  502    0  0.24708242939E+02  0.73520232107E+02  0.85493449207E+02  0.11552896457E+03  0.47000000000E+01 0. -1.
         13    1    4    4    0    0  0.53406450837E+02 -0.11379310057E+02  0.35708446158E+02  0.65244392981E+02  0.00000000000E+00 0. -1.
        -14    1    4    4    0    0 -0.87666372129E+01  0.35732395810E+02  0.80681147003E+01  0.37666331294E+02  0.00000000000E+00 0.  1.
         -5    1    3    3    0  504  0.31145300747E+02 -0.10660899907E+03  0.86960562993E+02  0.14113730179E+03  0.47000000000E+01 0.  1.
<mgrwt>
<rscale>  2 0.20671931E+03</rscale>
<asrwt>0</asrwt>
<pdfrwt beam="1">  1       21 0.67206890E-01 0.20693425E+03</pdfrwt>
<pdfrwt beam="2">  1       21 0.15318657E-01 0.20693425E+03</pdfrwt>
<totfact> 0.76019291E+04</totfact>
</mgrwt>
</event>
<event>
12    1  0.2791583E-001  0.2163296E+03  0.7546771E-02  0.1136983E+00
         21   -1    0    0  502  503  0.00000000000E+00  0.00000000000E+00  0.28018423268E+03  0.28018423268E+03  0.00000000000E+00 0. -1.
         21   -1    0    0  503  504 -0.00000000000E+00 -0.00000000000E+00 -0.17781372125E+03  0.17781372125E+03  0.00000000000E+00 0.  1.
         -6    2    1    2    0  504  0.92019694776E+02  0.87373251641E+02 -0.88134312535E+01  0.21476894212E+03  0.17305002919E+03 0.  0.
        -24    2    3    3    0    0  0.49915600092E+02  0.10901758275E+02 -0.61876458461E+02  0.11250253052E+03  0.78852443174E+02 0.  0.
          6    2    1    2  502    0 -0.92019694776E+02 -0.87373251641E+02  0.11118394268E+03  0.24322901180E+03  0.17520494782E+03 0.  0.
         24    2    5    5    0    0 -0.37728657297E+02  0.15331379269E+02  0.85084691411E+02  0.12406937569E+03  0.80593439562E+02 0.  0.
          4    1    6    6  501    0 -0.59223431350E+02 -0.63242460665E+01  0.52039228611E+02  0.79091669748E+02  0.00000000000E+00 0. -1.
         -3    1    6    6    0  501  0.21494774053E+02  0.21655625335E+02  0.33045462800E+02  0.44977705943E+02  0.00000000000E+00 0.  1.
          5    1    5    5  502    0 -0.54291037479E+02 -0.10270463091E+03  0.26099251273E+02  0.11915963611E+03  0.47000000000E+01 0. -1.
         13    1    4    4    0    0 -0.11543514850E+02 -0.16707243487E+02 -0.33968132710E+02  0.39575481802E+02  0.00000000000E+00 0. -1.
        -14    1    4    4    0    0  0.61459114942E+02  0.27609001763E+02 -0.27908325750E+02  0.72927048713E+02  0.00000000000E+00 0.  1.
         -5    1    3    3    0  504  0.42104094683E+02  0.76471493366E+02  0.53063027207E+02  0.10226641161E+03  0.47000000000E+01 0.  1.
<mgrwt>
<rscale>  2 0.21589286E+03</rscale>
<asrwt>0</asrwt>
<pdfrwt beam="1">  1       21 0.43105266E-01 0.21632957E+03</pdfrwt>
<pdfrwt beam="2">  1       21 0.27355957E-01 0.21632957E+03</pdfrwt>
<totfact> 0.65255354E+04</totfact>
</mgrwt>
</event>
<event>
12    1  0.2791583E-001  0.1881147E+03  0.7546771E-02  0.1160829E+00
         21   -1    0    0  502  503  0.00000000000E+00  0.00000000000E+00  0.53975083975E+03  0.53975083975E+03  0.00000000000E+00 0.  1.
         21   -1    0    0  503  504 -0.00000000000E+00 -0.00000000000E+00 -0.94534554405E+02  0.94534554405E+02  0.00000000000E+00 0.  1.
         -6    2    1    2    0  504  0.72773608764E+02 -0.12431249647E+02  0.42911168744E+02  0.19017217307E+03  0.16992219663E+03 0.  0.
        -24    2    3    3    0    0  0.83694154576E+02 -0.60341741908E+02  0.10446337134E+02  0.13108978246E+03  0.80184585668E+02 0.  0.
          6    2    1    2  502    0 -0.72773608764E+02  0.12431249647E+02  0.40230511660E+03  0.44411322108E+03  0.17302199917E+03 0.  0.
         24    2    5    5    0    0 -0.55680128442E+02  0.67182009541E+02  0.19364707910E+03  0.22766438327E+03  0.81964510941E+02 0.  0.
          2    1    6    6  501    0 -0.67534956034E+02  0.44038536778E+02  0.90118794910E+02  0.12092047058E+03  0.00000000000E+00 0. -1.
         -1    1    6    6    0  501  0.11854827593E+02  0.23143472763E+02  0.10352828419E+03  0.10674391269E+03  0.00000000000E+00 0.  1.
          5    1    5    5  502    0 -0.17093480323E+02 -0.54750759894E+02  0.20865803750E+03  0.21644883782E+03  0.47000000000E+01 0. -1.
         11    1    4    4    0    0 -0.36458692859E+01 -0.14947384041E+02  0.27192224500E+02  0.31243138859E+02  0.00000000000E+00 0. -1.
        -12    1    4    4    0    0  0.87340023862E+02 -0.45394357867E+02 -0.16745887365E+02  0.99846643599E+02  0.00000000000E+00 0.  1.
         -5    1    3    3    0  504 -0.10920545812E+02  0.47910492261E+02  0.32464831610E+02  0.59082390617E+02  0.47000000000E+01 0.  1.
<mgrwt>
<rscale>  2 0.18739886E+03</rscale>
<asrwt>0</asrwt>
<pdfrwt beam="1">  1       21 0.83038589E-01 0.18811472E+03</pdfrwt>
<pdfrwt beam="2">  1       21 0.14543778E-01 0.18811472E+03</pdfrwt>
<totfact> 0.52556532E+04</totfact>
</mgrwt>
</event>
<event>
12    1  0.2791583E-001  0.2267868E+03  0.7546771E-02  0.1129271E+00
         21   -1    0    0  502  503  0.00000000000E+00  0.00000000000E+00  0.19468968328E+03  0.19468968328E+03  0.00000000000E+00 0. -1.
         21   -1    0    0  503  504 -0.00000000000E+00 -0.00000000000E+00 -0.26240790323E+03  0.26240790323E+03  0.00000000000E+00 0.  1.
         -6    2    1    2    0  504 -0.14324887302E+03  0.17856070502E+01 -0.43537657729E+02  0.22902533321E+03  0.17330218578E+03 0.  0.
        -24    2    3    3    0    0 -0.10773882460E+03 -0.58362461114E+02 -0.57464307241E+02  0.15764749905E+03  0.80850208137E+02 0.  0.
          6    2    1    2  502    0  0.14324887302E+03 -0.17856070502E+01 -0.24180562216E+02  0.22807225330E+03  0.17580905870E+03 0.  0.
         24    2    5    5    0    0  0.53240822380E+02 -0.62586010762E+02  0.22542870793E+02  0.10973668188E+03  0.69154641312E+02 0.  0.
          4    1    6    6  501    0  0.10375090298E+02  0.14615255751E+01  0.30508576955E+02  0.32257585519E+02  0.00000000000E+00 0. -1.
         -3    1    6    6    0  501  0.42865732082E+02 -0.64047536337E+02 -0.79657061619E+01  0.77479096358E+02  0.00000000000E+00 0.  1.
          5    1    5    5  502    0  0.90008050643E+02  0.60800403712E+02 -0.46723433009E+02  0.11833557142E+03  0.47000000000E+01 0. -1.
         11    1    4    4    0    0 -0.45039556008E+02 -0.18459506598E+02  0.17842891801E+02  0.51842875857E+02  0.00000000000E+00 0. -1.
        -12    1    4    4    0    0 -0.62699268592E+02 -0.39902954516E+02 -0.75307199042E+02  0.10580462319E+03  0.00000000000E+00 0.  1.
         -5    1    3    3    0  504 -0.35510048423E+02  0.60148068164E+02  0.13926649512E+02  0.71377834161E+02  0.47000000000E+01 0.  1.
<mgrwt>
<rscale>  2 0.22630079E+03</rscale>
<asrwt>0</asrwt>
<pdfrwt beam="1">  1       21 0.29952259E-01 0.22678680E+03</pdfrwt>
<pdfrwt beam="2">  1       21 0.40370446E-01 0.22678680E+03</pdfrwt>
<totfact> 0.62254102E+04</totfact>
</mgrwt>
</event>
<event>
12    1  0.2791583E-001  0.1784625E+03  0.7546771E-02  0.1169620E+00
         21   -1    0    0  502  503  0.00000000000E+00  0.00000000000E+00  0.41604478679E+03  0.41604478679E+03  0.00000000000E+00 0. -1.
         21   -1    0    0  503  504 -0.00000000000E+00 -0.00000000000E+00 -0.18995541930E+03  0.18995541930E+03  0.00000000000E+00 0. -1.
         -6    2    1    2    0  504 -0.81934172618E+01 -0.39274553309E+02 -0.12181314322E+03  0.21499506736E+03  0.17255380177E+03 0.  0.
        -24    2    3    3    0    0 -0.69107929921E+01  0.14699899991E+02 -0.13593906990E+03  0.15899043775E+03  0.80837382758E+02 0.  0.
          6    2    1    2  502    0  0.81934172618E+01  0.39274553309E+02  0.34790251072E+03  0.39100513872E+03  0.17389433262E+03 0.  0.
         24    2    5    5    0    0  0.35803010319E+02 -0.22723827972E+01  0.81700304112E+02  0.12012852044E+03  0.80429487501E+02 0.  0.
          2    1    6    6  501    0 -0.78086097893E+01  0.31337804746E+02  0.23015362224E+02  0.39657777188E+02  0.00000000000E+00 0. -1.
         -1    1    6    6    0  501  0.43611620108E+02 -0.33610187544E+02  0.58684941888E+02  0.80470743253E+02  0.00000000000E+00 0.  1.
          5    1    5    5  502    0 -0.27609593057E+02  0.41546936106E+02  0.26620220660E+03  0.27087661828E+03  0.47000000000E+01 0. -1.
         13    1    4    4    0    0  0.33917185018E+02  0.72834680622E+01 -0.93080885259E+02  0.99335167726E+02  0.00000000000E+00 0. -1.
        -14    1    4    4    0    0 -0.40827978010E+02  0.74164319288E+01 -0.42858184640E+02  0.59655270023E+02  0.00000000000E+00 0.  1.
         -5    1    3    3    0  504 -0.12826242697E+01 -0.53974453300E+02  0.14125926673E+02  0.56004629616E+02  0.47000000000E+01 0.  1.
<mgrwt>
<rscale>  2 0.17813510E+03</rscale>
<asrwt>0</asrwt>
<pdfrwt beam="1">  1       21 0.64006890E-01 0.17846249E+03</pdfrwt>
<pdfrwt beam="2">  1       21 0.29223911E-01 0.17846249E+03</pdfrwt>
<totfact> 0.25476738E+04</totfact>
</mgrwt>
</event>
<event>
12    1  0.2791583E-001  0.3553857E+03  0.7546771E-02  0.1060628E+00
         21   -1    0    0  502  503  0.00000000000E+00  0.00000000000E+00  0.28552671157E+03  0.28552671157E+03  0.00000000000E+00 0.  1.
         21   -1    0    0  503  504 -0.00000000000E+00 -0.00000000000E+00 -0.10585252271E+04  0.10585252271E+04  0.00000000000E+00 0. -1.
         -6    2    1    2    0  504 -0.30641371023E+03 -0.34342641976E+02 -0.89981265286E+03  0.96671806393E+03  0.17266217302E+03 0.  0.
        -24    2    3    3    0    0 -0.28893606698E+03  0.15476148582E+02 -0.75342585922E+03  0.81103067439E+03  0.79979169090E+02 0.  0.
          6    2    1    2  502    0  0.30641371023E+03  0.34342641976E+02  0.12681413733E+03  0.37733387476E+03  0.17672082147E+03 0.  0.
         24    2    5    5    0    0  0.24754635201E+03  0.60743480584E+02  0.15270454748E+03  0.30765767021E+03  0.79784687699E+02 0.  0.
          4    1    6    6  501    0  0.93521598819E+01  0.21064485517E+02  0.22774334563E+01  0.23159493684E+02  0.00000000000E+00 0. -1.
         -3    1    6    6    0  501  0.23819419213E+03  0.39678995067E+02  0.15042711402E+03  0.28449817653E+03  0.00000000000E+00 0.  1.
          5    1    5    5  502    0  0.58867358219E+02 -0.26400838608E+02 -0.25890410149E+02  0.69676204551E+02  0.47000000000E+01 0. -1.
         13    1    4    4    0    0 -0.22470418574E+03  0.32748877402E+02 -0.64526255531E+03  0.68405279426E+03  0.00000000000E+00 0. -1.
        -14    1    4    4    0    0 -0.64231881241E+02 -0.17272728820E+02 -0.10816330392E+03  0.12697788013E+03  0.00000000000E+00 0.  1.
         -5    1    3    3    0  504 -0.17477643253E+02 -0.49818790558E+02 -0.14638679364E+03  0.15568738953E+03  0.47000000000E+01 0.  1.
<mgrwt>
<rscale>  2 0.35488452E+03</rscale>
<asrwt>0</asrwt>
<pdfrwt beam="1">  1       21 0.43927187E-01 0.35538574E+03</pdfrwt>
<pdfrwt beam="2">  1       21 0.16285003E+00 0.35538574E+03</pdfrwt>
<totfact> 0.10546745E+03</totfact>
</mgrwt>
</event>
<event>
12    1  0.2791583E-001  0.2380364E+03  0.7546771E-02  0.1121263E+00
         21   -1    0    0  502  503  0.00000000000E+00  0.00000000000E+00  0.28014883180E+03  0.28014883180E+03  0.00000000000E+00 0.  1.
         21   -1    0    0  503  504 -0.00000000000E+00 -0.00000000000E+00 -0.29154865346E+03  0.29154865346E+03  0.00000000000E+00 0. -1.
         -6    2    1    2    0  504  0.14101030283E+03  0.78587191468E+02 -0.16457714760E+03  0.28863451579E+03  0.17367899708E+03 0.  0.
        -24    2    3    3    0    0  0.88636954787E+02  0.79552004023E+02 -0.18349410460E+03  0.23274319526E+03  0.79462427704E+02 0.  0.
          6    2    1    2  502    0 -0.14101030283E+03 -0.78587191468E+02  0.15317732594E+03  0.28306296948E+03  0.17493284237E+03 0.  0.
         24    2    5    5    0    0 -0.83671893575E+02 -0.13917349891E+02  0.15756748781E+03  0.19639552976E+03  0.80925969200E+02 0.  0.
          4    1    6    6  501    0  0.91713863810E+00 -0.77868562237E+01  0.83285587729E+02  0.83653842688E+02  0.00000000000E+00 0. -1.
         -3    1    6    6    0  501 -0.84589032213E+02 -0.61304936672E+01  0.74281900085E+02  0.11274168707E+03  0.00000000000E+00 0.  1.
          5    1    5    5  502    0 -0.57338409258E+02 -0.64669841577E+02 -0.43901618750E+01  0.86667439718E+02  0.47000000000E+01 0. -1.
         11    1    4    4    0    0  0.24392471095E+02  0.70719804190E+02 -0.72393388491E+02  0.10410132587E+03  0.00000000000E+00 0. -1.
        -12    1    4    4    0    0  0.64244483692E+02  0.88321998322E+01 -0.11110071611E+03  0.12864186939E+03  0.00000000000E+00 0.  1.
         -5    1    3    3    0  504  0.52373348047E+02 -0.96481255429E+00  0.18916957001E+02  0.55891320534E+02  0.47000000000E+01 0.  1.
<mgrwt>
<rscale>  2 0.23780613E+03</rscale>
<asrwt>0</asrwt>
<pdfrwt beam="1">  1       21 0.43099820E-01 0.23803645E+03</pdfrwt>
<pdfrwt beam="2">  1       21 0.44853639E-01 0.23803645E+03</pdfrwt>
<totfact> 0.24097325E+04</totfact>
</mgrwt>
</event>
<event>
12    1  0.2791583E-001  0.1907293E+03  0.7546771E-02  0.1158018E+00
         21   -1    0    0  502  503  0.00000000000E+00  0.00000000000E+00  0.49913404642E+03  0.49913404642E+03  0.00000000000E+00 0.  1.
         21   -1    0    0  503  504 -0.00000000000E+00 -0.00000000000E+00 -0.77378957236E+02  0.77378957236E+02  0.00000000000E+00 0.  1.
         -6    2    1    2    0  504 -0.29782865307E+02 -0.74955841897E+02  0.28261626878E+03  0.34042555067E+03  0.17179116062E+03 0.  0.
        -24    2    3    3    0    0  0.42268034730E+02 -0.70238034280E+02  0.13406873359E+03  0.17519223043E+03  0.77446265616E+02 0.  0.
          6    2    1    2  502    0  0.29782865307E+02  0.74955841897E+02  0.13913882040E+03  0.23608745298E+03  0.17283598240E+03 0.  0.
         24    2    5    5    0    0 -0.30966193512E+02  0.83835719657E+02  0.56069907447E+02  0.13268612477E+03  0.80463905918E+02 0.  0.
          4    1    6    6  501    0 -0.52132609655E+02  0.71057848527E+02  0.61378829135E+02  0.10739826578E+03  0.00000000000E+00 0. -1.
         -3    1    6    6    0  501  0.21166416144E+02  0.12777871129E+02 -0.53089216880E+01  0.25287858993E+02  0.00000000000E+00 0.  1.
          5    1    5    5  502    0  0.60749058819E+02 -0.88798777596E+01  0.83068912950E+02  0.10340132821E+03  0.47000000000E+01 0. -1.
         13    1    4    4    0    0  0.43644380014E+02 -0.27279140455E+01  0.67091551884E+02  0.80084641199E+02  0.00000000000E+00 0. -1.
        -14    1    4    4    0    0 -0.13763452830E+01 -0.67510120234E+02  0.66977181703E+02  0.95107589231E+02  0.00000000000E+00 0.  1.
         -5    1    3    3    0  504 -0.72050900037E+02 -0.47178076174E+01  0.14854753520E+03  0.16523332024E+03  0.47000000000E+01 0.  1.
<mgrwt>
<rscale>  2 0.19049231E+03</rscale>
<asrwt>0</asrwt>
<pdfrwt beam="1">  1       21 0.76789851E-01 0.19072932E+03</pdfrwt>
<pdfrwt beam="2">  1       21 0.11904455E-01 0.19072932E+03</pdfrwt>
<totfact> 0.89850978E+04</totfact>
</mgrwt>
</event>
<event>
12    1  0.2791583E-001  0.1979840E+03  0.7546771E-02  0.1151529E+00
         21   -1    0    0  502  503  0.00000000000E+00  0.00000000000E+00  0.64386940486E+03  0.64386940486E+03  0.00000000000E+00 0. -1.
         21   -1    0    0  503  504 -0.00000000000E+00 -0.00000000000E+00 -0.11890035423E+03  0.11890035423E+03  0.00000000000E+00 0. -1.
         -6    2    1    2    0  504  0.42202884760E+01  0.95762461137E+02 -0.40698669332E+01  0.19802587452E+03  0.17323228153E+03 0.  0.
        -24    2    3    3    0    0 -0.42329239769E+02  0.81087599251E+02  0.44956031128E+02  0.12868729339E+03  0.78564695982E+02 0.  0.
          6    2    1    2  502    0 -0.42202884760E+01 -0.95762461137E+02  0.52903891756E+03  0.56474388457E+03  0.17281556373E+03 0.  0.
         24    2    5    5    0    0 -0.50421759260E+02 -0.77368441086E+02  0.47674804515E+03  0.49242970053E+03  0.81670569504E+02 0.  0.
          4    1    6    6  501    0 -0.37438427581E+02 -0.57216267290E+02  0.45485164597E+03  0.45996234296E+03  0.00000000000E+00 0. -1.
         -3    1    6    6    0  501 -0.12983331680E+02 -0.20152173796E+02  0.21896399185E+02  0.32467357568E+02  0.00000000000E+00 0.  1.
          5    1    5    5  502    0  0.46201470784E+02 -0.18394020051E+02  0.52290872407E+02  0.72314184040E+02  0.47000000000E+01 0. -1.
         11    1    4    4    0    0 -0.11697904695E+02  0.80156113043E+02  0.90926766180E+01  0.81513926421E+02  0.00000000000E+00 0. -1.
        -12    1    4    4    0    0 -0.30631335074E+02  0.93148620811E+00  0.35863354510E+02  0.47173366974E+02  0.00000000000E+00 0.  1.
         -5    1    3    3    0  504  0.46549528245E+02  0.14674861886E+02 -0.49025898061E+02  0.69338581121E+02  0.47000000000E+01 0.  1.
<mgrwt>
<rscale>  2 0.19789286E+03</rscale>
<asrwt>0</asrwt>
<pdfrwt beam="1">  1       21 0.99056829E-01 0.19798405E+03</pdfrwt>
<pdfrwt beam="2">  1       21 0.18292363E-01 0.19798405E+03</pdfrwt>
<totfact> 0.22805807E+04</totfact>
</mgrwt>
</event>
<event>
12    1  0.2791583E-001  0.2035957E+03  0.7546771E-02  0.1147046E+00
         21   -1    0    0  502  503  0.00000000000E+00  0.00000000000E+00  0.47390861910E+03  0.47390861910E+03  0.00000000000E+00 0. -1.
         21   -1    0    0  503  504 -0.00000000000E+00 -0.00000000000E+00 -0.12617683359E+03  0.12617683359E+03  0.00000000000E+00 0. -1.
         -6    2    1    2    0  504 -0.35218685671E+02 -0.98898951806E+02  0.58853265478E+01  0.20220332059E+03  0.17271417806E+03 0.  0.
        -24    2    3    3    0    0  0.46050117454E+02 -0.59393229691E+02 -0.69566833629E+01  0.11081225068E+03  0.81134397189E+02 0.  0.
          6    2    1    2  502    0  0.35218685671E+02  0.98898951806E+02  0.34184645896E+03  0.39788213209E+03  0.17444148314E+03 0.  0.
         24    2    5    5    0    0  0.67430561123E+02  0.10337516420E+03  0.33244988923E+03  0.36370572326E+03  0.80781304371E+02 0.  0.
          4    1    6    6  501    0  0.67181055585E+02  0.73866591073E+02  0.15891291243E+03  0.18767759920E+03  0.00000000000E+00 0. -1.
         -3    1    6    6    0  501  0.24950553761E+00  0.29508573124E+02  0.17353697680E+03  0.17602812406E+03  0.00000000000E+00 0.  1.
          5    1    5    5  502    0 -0.32211875452E+02 -0.44762123916E+01  0.93965697310E+01  0.34176408826E+02  0.47000000000E+01 0. -1.
         13    1    4    4    0    0  0.30427745528E+02 -0.10716103038E+01  0.27728466628E+02  0.41180868229E+02  0.00000000000E+00 0. -1.
        -14    1    4    4    0    0  0.15622371926E+02 -0.58321619387E+02 -0.34685149991E+02  0.69631382454E+02  0.00000000000E+00 0.  1.
         -5    1    3    3    0  504 -0.81268803125E+02 -0.39505722115E+02  0.12842009911E+02  0.91391069912E+02  0.47000000000E+01 0.  1.
<mgrwt>
<rscale>  2 0.20322514E+03</rscale>
<asrwt>0</asrwt>
<pdfrwt beam="1">  1       21 0.72909017E-01 0.20359565E+03</pdfrwt>
<pdfrwt beam="2">  1       21 0.19411821E-01 0.20359565E+03</pdfrwt>
<totfact> 0.41089320E+04</totfact>
</mgrwt>
</event>
<event>
12    1  0.2791583E-001  0.1975019E+03  0.7546771E-02  0.1151927E+00
         21   -1    0    0  502  503  0.00000000000E+00  0.00000000000E+00  0.32292687766E+03  0.32292687766E+03  0.00000000000E+00 0. -1.
         21   -1    0    0  503  504 -0.00000000000E+00 -0.00000000000E+00 -0.19886096998E+03  0.19886096998E+03  0.00000000000E+00 0. -1.
         -6    2    1    2    0  504  0.97149672615E+02  0.10286487361E+02 -0.10159300215E+03  0.22209938801E+03  0.17164827222E+03 0.  0.
        -24    2    3    3    0    0  0.11814015786E+03 -0.36136797804E+02 -0.79050563147E+02  0.16618898260E+03  0.78146153772E+02 0.  0.
          6    2    1    2  502    0 -0.97149672615E+02 -0.10286487361E+02  0.22565890984E+03  0.29968845963E+03  0.17131070760E+03 0.  0.
         24    2    5    5    0    0  0.73167564040E+01 -0.37535284824E+02  0.96852392655E+02  0.13155476098E+03  0.80397989040E+02 0.  0.
          2    1    6    6  501    0 -0.19422863817E+02 -0.29249676388E+02  0.97421065175E+02  0.10355508267E+03  0.00000000000E+00 0. -1.
         -1    1    6    6    0  501  0.26739620221E+02 -0.82856084361E+01 -0.56867252001E+00  0.27999678304E+02  0.00000000000E+00 0.  1.
          5    1    5    5  502    0 -0.10446642902E+03  0.27248797463E+02  0.12880651718E+03  0.16813369866E+03  0.47000000000E+01 0. -1.
         11    1    4    4    0    0  0.48326518553E+02 -0.11276547556E+02 -0.77546820648E+02  0.92065858563E+02  0.00000000000E+00 0. -1.
        -12    1    4    4    0    0  0.69813639309E+02 -0.24860250248E+02 -0.15037424992E+01  0.74123124040E+02  0.00000000000E+00 0.  1.
         -5    1    3    3    0  504 -0.20990485247E+02  0.46423285166E+02 -0.22542439007E+02  0.55910405408E+02  0.47000000000E+01 0.  1.
<mgrwt>
<rscale>  2 0.19742853E+03</rscale>
<asrwt>0</asrwt>
<pdfrwt beam="1">  1       21 0.49681058E-01 0.19750190E+03</pdfrwt>
<pdfrwt beam="2">  1       21 0.30593995E-01 0.19750190E+03</pdfrwt>
<totfact> 0.39506567E+04</totfact>
</mgrwt>
</event>
<event>
12    1  0.2791583E-001  0.1931522E+03  0.7546771E-02  0.1155715E+00
         21   -1    0    0  502  503  0.00000000000E+00  0.00000000000E+00  0.36238745679E+03  0.36238745679E+03  0.00000000000E+00 0. -1.
         21   -1    0    0  503  504 -0.00000000000E+00 -0.00000000000E+00 -0.27400092655E+03  0.27400092655E+03  0.00000000000E+00 0. -1.
         -6    2    1    2    0  504 -0.57775420022E+02  0.63235791170E+02 -0.20734474565E+03  0.28316784765E+03  0.17278721582E+03 0.  0.
        -24    2    3    3    0    0 -0.22896314870E+02 -0.32511299357E+02 -0.11584153784E+03  0.14613141322E+03  0.79711368210E+02 0.  0.
          6    2    1    2  502    0  0.57775420022E+02 -0.63235791170E+02  0.29573127590E+03  0.35322053569E+03  0.17312132984E+03 0.  0.
         24    2    5    5    0    0 -0.15427969671E+02 -0.73986381037E+02  0.11147461395E+03  0.15460805140E+03  0.75927947261E+02 0.  0.
          4    1    6    6  501    0  0.16519491494E+02 -0.66035722165E+02  0.97340311571E+02  0.11878024439E+03  0.00000000000E+00 0. -1.
         -3    1    6    6    0  501 -0.31947461165E+02 -0.79506588717E+01  0.14134302383E+02  0.35827807011E+02  0.00000000000E+00 0.  1.
          5    1    5    5  502    0  0.73203389693E+02  0.10750589867E+02  0.18425666194E+03  0.19861248429E+03  0.47000000000E+01 0. -1.
         13    1    4    4    0    0  0.16565936998E+02 -0.20252564882E+02 -0.97449141332E+02  0.10090060356E+03  0.00000000000E+00 0. -1.
        -14    1    4    4    0    0 -0.39462251868E+02 -0.12258734475E+02 -0.18392396505E+02  0.45230809662E+02  0.00000000000E+00 0.  1.
         -5    1    3    3    0  504 -0.34879105152E+02  0.95747090527E+02 -0.91503207813E+02  0.13703643443E+03  0.47000000000E+01 0.  1.
<mgrwt>
<rscale>  2 0.19307727E+03</rscale>
<asrwt>0</asrwt>
<pdfrwt beam="1">  1       21 0.55751916E-01 0.19315217E+03</pdfrwt>
<pdfrwt beam="2">  1       21 0.42153989E-01 0.19315217E+03</pdfrwt>
<totfact> 0.16409948E+04</totfact>
</mgrwt>
</event>
<event>
12    1  0.2791583E-001  0.1756176E+03  0.7546771E-02  0.1172134E+00
         21   -1    0    0  502  503  0.00000000000E+00  0.00000000000E+00  0.11667985265E+03  0.11667985265E+03  0.00000000000E+00 0. -1.
         21   -1    0    0  503  504 -0.00000000000E+00 -0.00000000000E+00 -0.31366077124E+03  0.31366077124E+03  0.00000000000E+00 0. -1.
         -6    2    1    2    0  504 -0.22774278108E+02  0.22515085490E+02 -0.18395325519E+03  0.25432333452E+03  0.17267299027E+03 0.  0.
        -24    2    3    3    0    0  0.36982379014E+02 -0.21648415073E+02 -0.58028394935E+02  0.10803446521E+03  0.80422638742E+02 0.  0.
          6    2    1    2  502    0  0.22774278108E+02 -0.22515085490E+02 -0.13027663398E+02  0.17601728937E+03  0.17258843914E+03 0.  0.
         24    2    5    5    0    0  0.61778234856E+02 -0.16052306442E+02 -0.56631106808E+02  0.11697132056E+03  0.80006129340E+02 0.  0.
          4    1    6    6  501    0  0.69194592543E+02 -0.25728511832E+02 -0.17339927871E+02  0.75832190110E+02  0.00000000000E+00 0. -1.
         -3    1    6    6    0  501 -0.74163576876E+01  0.96762053903E+01 -0.39291178938E+02  0.41139130453E+02  0.00000000000E+00 0.  1.
          5    1    5    5  502    0 -0.39003956748E+02 -0.64627790477E+01  0.43603443410E+02  0.59045968806E+02  0.47000000000E+01 0. -1.
         13    1    4    4    0    0  0.24858978646E+02 -0.15315831057E+02 -0.78307446589E+02  0.83573917532E+02  0.00000000000E+00 0. -1.
        -14    1    4    4    0    0  0.12123400368E+02 -0.63325840164E+01  0.20279051654E+02  0.24460547680E+02  0.00000000000E+00 0.  1.
         -5    1    3    3    0  504 -0.59756657122E+02  0.44163500563E+02 -0.12592486026E+03  0.14628886931E+03  0.47000000000E+01 0.  1.
<mgrwt>
<rscale>  2 0.17559686E+03</rscale>
<asrwt>0</asrwt>
<pdfrwt beam="1">  1       21 0.17950747E-01 0.17561765E+03</pdfrwt>
<pdfrwt beam="2">  1       21 0.48255502E-01 0.17561765E+03</pdfrwt>
<totfact> 0.11647994E+05</totfact>
</mgrwt>
</event>
<event>
12    1  0.2791583E-001  0.1879372E+03  0.7546771E-02  0.1160656E+00
         21   -1    0    0  502  503  0.00000000000E+00  0.00000000000E+00  0.74744149280E+03  0.74744149280E+03  0.00000000000E+00 0. -1.
         21   -1    0    0  503  504 -0.00000000000E+00 -0.00000000000E+00 -0.47000317564E+02  0.47000317564E+02  0.00000000000E+00 0. -1.
         -6    2    1    2    0  504 -0.58366260014E+02  0.44353984250E+02  0.33095358622E+03  0.37990414695E+03  0.17153130447E+03 0.  0.
        -24    2    3    3    0    0 -0.44741855222E+02  0.51973340342E+02  0.34419894097E+03  0.35889918526E+03  0.75050999341E+02 0.  0.
          6    2    1    2  502    0  0.58366260014E+02 -0.44353984250E+02  0.36948758901E+03  0.41453766341E+03  0.17305056984E+03 0.  0.
         24    2    5    5    0    0  0.84665033789E+02  0.91749840181E+01  0.17231061921E+03  0.20848470088E+03  0.80762446289E+02 0.  0.
          4    1    6    6  501    0  0.93428459676E+02  0.26370197261E+02  0.15287977827E+03  0.18109801486E+03  0.00000000000E+00 0. -1.
         -3    1    6    6    0  501 -0.87634258870E+01 -0.17195213243E+02  0.19430840935E+02  0.27386686021E+02  0.00000000000E+00 0.  1.
          5    1    5    5  502    0 -0.26298773775E+02 -0.53528968268E+02  0.19717696981E+03  0.20605296253E+03  0.47000000000E+01 0. -1.
         13    1    4    4    0    0 -0.52429511015E+02  0.18857342619E+02  0.12208251123E+03  0.13419609735E+03  0.00000000000E+00 0. -1.
        -14    1    4    4    0    0  0.76876557924E+01  0.33115997722E+02  0.22211642974E+03  0.22470308791E+03  0.00000000000E+00 0.  1.
         -5    1    3    3    0  504 -0.13624404792E+02 -0.76193560919E+01 -0.13245354749E+02  0.21004961691E+02  0.47000000000E+01 0.  1.
<mgrwt>
<rscale>  2 0.18758674E+03</rscale>
<asrwt>0</asrwt>
<pdfrwt beam="1">  1       21 0.11499099E+00 0.18793721E+03</pdfrwt>
<pdfrwt beam="2">  1       21 0.72308186E-02 0.18793721E+03</pdfrwt>
<totfact> 0.84037602E+04</totfact>
</mgrwt>
</event>
<event>
12    1  0.2791583E-001  0.1944724E+03  0.7546771E-02  0.1154888E+00
         21   -1    0    0  502  503  0.00000000000E+00  0.00000000000E+00  0.15310821419E+03  0.15310821419E+03  0.00000000000E+00 0.  1.
         21   -1    0    0  503  504 -0.00000000000E+00 -0.00000000000E+00 -0.44493592102E+03  0.44493592102E+03  0.00000000000E+00 0.  1.
         -6    2    1    2    0  504 -0.58229364932E+02  0.66858269763E+02 -0.34688427963E+03  0.39767854703E+03  0.17308621013E+03 0.  0.
        -24    2    3    3    0    0 -0.72758741569E+02  0.61908029699E+01 -0.13342147729E+03  0.17523731368E+03  0.87032551303E+02 0.  0.
          6    2    1    2  502    0  0.58229364932E+02 -0.66858269763E+02  0.55056572797E+02  0.20036558818E+03  0.17103933916E+03 0.  0.
         24    2    5    5    0    0  0.62002503051E+02 -0.32531301277E+02 -0.26912600464E+02  0.11129475849E+03  0.82217025339E+02 0.  0.
          2    1    6    6  501    0  0.44111687713E+02 -0.51682782278E+02 -0.43124497312E+02  0.80477781066E+02  0.00000000000E+00 0. -1.
         -1    1    6    6    0  501  0.17890815338E+02  0.19151481001E+02  0.16211896847E+02  0.30816977421E+02  0.00000000000E+00 0.  1.
          5    1    5    5  502    0 -0.37731381198E+01 -0.34326968486E+02  0.81969173261E+02  0.89070829691E+02  0.47000000000E+01 0. -1.
         11    1    4    4    0    0 -0.38710042555E+02  0.28319180123E+02 -0.15320964335E+02  0.50350524382E+02  0.00000000000E+00 0. -1.
        -12    1    4    4    0    0 -0.34048699015E+02 -0.22128377153E+02 -0.11810051295E+03  0.12488678929E+03  0.00000000000E+00 0.  1.
         -5    1    3    3    0  504  0.14529376638E+02  0.60667466793E+02 -0.21346280234E+03  0.22244123335E+03  0.47000000000E+01 0.  1.
<mgrwt>
<rscale>  2 0.19401594E+03</rscale>
<asrwt>0</asrwt>
<pdfrwt beam="1">  1       21 0.23555110E-01 0.19447242E+03</pdfrwt>
<pdfrwt beam="2">  1       21 0.68451680E-01 0.19447242E+03</pdfrwt>
<totfact> 0.32987639E+04</totfact>
</mgrwt>
</event>
<event>
12    1  0.2791583E-001  0.1896052E+03  0.7546771E-02  0.1159696E+00
         21   -1    0    0  502  503  0.00000000000E+00  0.00000000000E+00  0.18496640750E+03  0.18496640750E+03  0.00000000000E+00 0.  1.
         21   -1    0    0  503  504 -0.00000000000E+00 -0.00000000000E+00 -0.19065544452E+03  0.19065544452E+03  0.00000000000E+00 0.  1.
         -6    2    1    2    0  504 -0.79129035012E+02 -0.74944047710E+01 -0.91054288496E+01  0.18598588614E+03  0.16789958525E+03 0.  0.
        -24    2    3    3    0    0 -0.26065843370E+02  0.49099921376E+01 -0.46775716589E+02  0.11957269507E+03  0.10679946410E+03 0.  0.
          6    2    1    2  502    0  0.79129035012E+02  0.74944047710E+01  0.34163918362E+01  0.18963596588E+03  0.17214109775E+03 0.  0.
         24    2    5    5    0    0  0.10884333185E+02  0.47339154339E+02  0.93378923245E+01  0.11025021423E+03  0.98531463316E+02 0.  0.
          4    1    6    6  501    0 -0.28020443207E+02  0.37215126247E+01  0.36197543134E+02  0.45926648285E+02  0.00000000000E+00 0. -1.
         -3    1    6    6    0  501  0.38904776392E+02  0.43617641714E+02 -0.26859650809E+02  0.64323565949E+02  0.00000000000E+00 0.  1.
          5    1    5    5  502    0  0.68244701827E+02 -0.39844749568E+02 -0.59215004883E+01  0.79385751641E+02  0.47000000000E+01 0. -1.
         11    1    4    4    0    0 -0.62585960629E+02 -0.20146849841E+02 -0.28540403600E+02  0.71676025727E+02  0.00000000000E+00 0. -1.
        -12    1    4    4    0    0  0.36520117260E+02  0.25056841979E+02 -0.18235312989E+02  0.47896669346E+02  0.00000000000E+00 0.  1.
         -5    1    3    3    0  504 -0.53063191643E+02 -0.12404396909E+02  0.37670287739E+02  0.66413191072E+02  0.47000000000E+01 0.  1.
<mgrwt>
<rscale>  2 0.18863722E+03</rscale>
<asrwt>0</asrwt>
<pdfrwt beam="1">  1       21 0.28456370E-01 0.18960519E+03</pdfrwt>
<pdfrwt beam="2">  1       21 0.29331607E-01 0.18960519E+03</pdfrwt>
<totfact> 0.13160991E+05</totfact>
</mgrwt>
</event>
<event>
12    1  0.2791583E-001  0.3534618E+03  0.7546771E-02  0.1061302E+00
         21   -1    0    0  502  503  0.00000000000E+00  0.00000000000E+00  0.72559751470E+03  0.72559751470E+03  0.00000000000E+00 0.  1.
         21   -1    0    0  503  504 -0.00000000000E+00 -0.00000000000E+00 -0.22584322312E+03  0.22584322312E+03  0.00000000000E+00 0. -1.
         -6    2    1    2    0  504  0.25381923234E+03 -0.17544383438E+03  0.16706702515E+02  0.35288397403E+03  0.17042078362E+03 0.  0.
        -24    2    3    3    0    0  0.80307148243E+02 -0.78819066732E+02 -0.43735605185E+02  0.14523486710E+03  0.80738343553E+02 0.  0.
          6    2    1    2  502    0 -0.25381923234E+03  0.17544383438E+03  0.48304758906E+03  0.59855676379E+03  0.17242530108E+03 0.  0.
         24    2    5    5    0    0 -0.57412195358E+02  0.60814133922E+02  0.23913895810E+03  0.26504634017E+03  0.77894814316E+02 0.  0.
          4    1    6    6  501    0 -0.68033115848E+02  0.18819770932E+02  0.15855717577E+03  0.17355997989E+03  0.00000000000E+00 0. -1.
         -3    1    6    6    0  501  0.10620920491E+02  0.41994362989E+02  0.80581782327E+02  0.91486360283E+02  0.00000000000E+00 0.  1.
          5    1    5    5  502    0 -0.19640703698E+03  0.11462970046E+03  0.24390863097E+03  0.33351042362E+03  0.47000000000E+01 0. -1.
         11    1    4    4    0    0  0.72179811854E+01  0.15144210339E+02  0.35447884434E+01  0.17146774749E+02  0.00000000000E+00 0. -1.
        -12    1    4    4    0    0  0.73089167058E+02 -0.93963277071E+02 -0.47280393629E+02  0.12808809235E+03  0.00000000000E+00 0.  1.
         -5    1    3    3    0  504  0.17351208410E+03 -0.96624767649E+02  0.60442307700E+02  0.20764910693E+03  0.47000000000E+01 0.  1.
<mgrwt>
<rscale>  2 0.35321815E+03</rscale>
<asrwt>0</asrwt>
<pdfrwt beam="1">  1       21 0.11163039E+00 0.35346177E+03</pdfrwt>
<pdfrwt beam="2">  1       21 0.34745112E-01 0.35346177E+03</pdfrwt>
<totfact> 0.45702522E+03</totfact>
</mgrwt>
</event>
<event>
12    1  0.2791583E-001  0.1837000E+03  0.7546771E-02  0.1164536E+00
         21   -1    0    0  502  503  0.00000000000E+00  0.00000000000E+00  0.63374639009E+03  0.63374639009E+03  0.00000000000E+00 0.  1.
         21   -1    0    0  503  504 -0.00000000000E+00 -0.00000000000E+00 -0.89880340888E+02  0.89880340888E+02  0.00000000000E+00 0.  1.
         -6    2    1    2    0  504 -0.49475044187E+02  0.10304604022E+02  0.39428184059E+02  0.18678109474E+03  0.17543839600E+03 0.  0.
        -24    2    3    3    0    0 -0.53121645846E+02  0.41103335210E+02 -0.31638616352E+02  0.10909943881E+03  0.79939302486E+02 0.  0.
          6    2    1    2  502    0  0.49475044187E+02 -0.10304604022E+02  0.50443786514E+03  0.53684563624E+03  0.17661175640E+03 0.  0.
         24    2    5    5    0    0 -0.16687192267E+02  0.25905898993E+01  0.11657827931E+03  0.14314413017E+03  0.81330026764E+02 0.  0.
          4    1    6    6  501    0 -0.32987386335E+02  0.34169178401E+02  0.64675647389E+02  0.80241135180E+02  0.00000000000E+00 0. -1.
         -3    1    6    6    0  501  0.16300194068E+02 -0.31578588501E+02  0.51902631917E+02  0.62902994986E+02  0.00000000000E+00 0.  1.
          5    1    5    5  502    0  0.66162236455E+02 -0.12895193921E+02  0.38785958584E+03  0.39370150607E+03  0.47000000000E+01 0. -1.
         11    1    4    4    0    0  0.16439759401E+02  0.29590724556E+02 -0.11890603199E+02  0.35878449149E+02  0.00000000000E+00 0. -1.
        -12    1    4    4    0    0 -0.69561405247E+02  0.11512610654E+02 -0.19748013152E+02  0.73220989665E+02  0.00000000000E+00 0.  1.
         -5    1    3    3    0  504  0.36466016590E+01 -0.30798731188E+02  0.71066800411E+02  0.77681655924E+02  0.47000000000E+01 0.  1.
<mgrwt>
<rscale>  2 0.18341736E+03</rscale>
<asrwt>0</asrwt>
<pdfrwt beam="1">  1       21 0.97499442E-01 0.18369997E+03</pdfrwt>
<pdfrwt beam="2">  1       21 0.13827745E-01 0.18369997E+03</pdfrwt>
<totfact> 0.39817431E+04</totfact>
</mgrwt>
</event>
<event>
12    1  0.2791583E-001  0.2600727E+03  0.7546771E-02  0.1107110E+00
         21   -1    0    0  502  503  0.00000000000E+00  0.00000000000E+00  0.33176805589E+03  0.33176805589E+03  0.00000000000E+00 0.  1.
         21   -1    0    0  503  504 -0.00000000000E+00 -0.00000000000E+00 -0.21122024413E+03  0.21122024413E+03  0.00000000000E+00 0.  1.
         -6    2    1    2    0  504 -0.33792653347E+02  0.19019714372E+03  0.94546882395E+01  0.26024445803E+03  0.17412894621E+03 0.  0.
        -24    2    3    3    0    0 -0.17446985508E+02  0.21119931220E+03  0.26617651888E+02  0.22822994165E+03  0.80441656488E+02 0.  0.
          6    2    1    2  502    0  0.33792653347E+02 -0.19019714372E+03  0.11109312352E+03  0.28274384198E+03  0.17402730012E+03 0.  0.
         24    2    5    5    0    0  0.45610900825E+02 -0.21279061080E+03  0.87849608315E+02  0.24792306187E+03  0.79925544156E+02 0.  0.
          4    1    6    6  501    0 -0.19592531943E+02 -0.21533184575E+02  0.17462257418E+02  0.33948133675E+02  0.00000000000E+00 0. -1.
         -3    1    6    6    0  501  0.65203432768E+02 -0.19125742622E+03  0.70387350897E+02  0.21397492820E+03  0.00000000000E+00 0.  1.
          5    1    5    5  502    0 -0.11818247478E+02  0.22593467083E+02  0.23243515203E+02  0.34820780107E+02  0.47000000000E+01 0. -1.
         11    1    4    4    0    0 -0.31049307657E+02  0.19510872202E+03  0.42204535752E+02  0.20202152299E+03  0.00000000000E+00 0. -1.
        -12    1    4    4    0    0  0.13602322149E+02  0.16090590180E+02 -0.15586883864E+02  0.26208418662E+02  0.00000000000E+00 0.  1.
         -5    1    3    3    0  504 -0.16345667839E+02 -0.21002168480E+02 -0.17162963649E+02  0.32014516383E+02  0.47000000000E+01 0.  1.
<mgrwt>
<rscale>  2 0.26005564E+03</rscale>
<asrwt>0</asrwt>
<pdfrwt beam="1">  1       21 0.51041239E-01 0.26007266E+03</pdfrwt>
<pdfrwt beam="2">  1       21 0.32495422E-01 0.26007266E+03</pdfrwt>
<totfact> 0.32196554E+04</totfact>
</mgrwt>
</event>
<event>
12    1  0.2791583E-001  0.2388252E+03  0.7546771E-02  0.1120624E+00
         21   -1    0    0  502  503  0.00000000000E+00  0.00000000000E+00  0.23958911771E+03  0.23958911771E+03  0.00000000000E+00 0.  1.
         21   -1    0    0  503  504 -0.00000000000E+00 -0.00000000000E+00 -0.35826387488E+03  0.35826387488E+03  0.00000000000E+00 0.  1.
         -6    2    1    2    0  504 -0.91562501162E+02 -0.13692826696E+03 -0.23265733225E+03  0.33322214317E+03  0.17255294995E+03 0.  0.
        -24    2    3    3    0    0  0.97680504273E+01 -0.51758126101E+02 -0.52121659900E+02  0.10930909627E+03  0.80358525812E+02 0.  0.
          6    2    1    2  502    0  0.91562501162E+02  0.13692826696E+03  0.11398257508E+03  0.26463084943E+03  0.17292893666E+03 0.  0.
         24    2    5    5    0    0  0.40590415098E+02  0.13636121636E+03  0.31023618259E+02  0.16714878122E+03  0.82062701937E+02 0.  0.
          4    1    6    6  501    0  0.25300656245E+02 -0.43779552744E+00 -0.26388311744E+01  0.25441664672E+02  0.00000000000E+00 0. -1.
         -3    1    6    6    0  501  0.15289758853E+02  0.13679901189E+03  0.33662449433E+02  0.14170711655E+03  0.00000000000E+00 0.  1.
          5    1    5    5  502    0  0.50972086063E+02  0.56705059845E+00  0.82958956825E+02  0.97482068205E+02  0.47000000000E+01 0. -1.
         13    1    4    4    0    0 -0.20764952986E+02  0.11697529765E+02 -0.22950220332E+02  0.33086675390E+02  0.00000000000E+00 0. -1.
        -14    1    4    4    0    0  0.30533003413E+02 -0.63455655866E+02 -0.29171439569E+02  0.76222420883E+02  0.00000000000E+00 0.  1.
         -5    1    3    3    0  504 -0.10133055159E+03 -0.85170140855E+02 -0.18053567235E+03  0.22391304690E+03  0.47000000000E+01 0.  1.
<mgrwt>
<rscale>  2 0.23875711E+03</rscale>
<asrwt>0</asrwt>
<pdfrwt beam="1">  1       21 0.36859864E-01 0.23882516E+03</pdfrwt>
<pdfrwt beam="2">  1       21 0.55117519E-01 0.23882516E+03</pdfrwt>
<totfact> 0.21487870E+04</totfact>
</mgrwt>
</event>
<event>
12    1  0.2791583E-001  0.1798866E+03  0.7546771E-02  0.1169081E+00
         21   -1    0    0  502  503  0.00000000000E+00  0.00000000000E+00  0.54031124596E+02  0.54031124596E+02  0.00000000000E+00 0.  1.
         21   -1    0    0  503  504 -0.00000000000E+00 -0.00000000000E+00 -0.68694509309E+03  0.68694509309E+03  0.00000000000E+00 0. -1.
         -6    2    1    2    0  504 -0.27501492239E+02 -0.63455167268E+01 -0.45684781970E+03  0.48926509458E+03  0.17284040254E+03 0.  0.
        -24    2    3    3    0    0 -0.57372432954E+02  0.19666332989E+02 -0.15701843470E+03  0.18679420419E+03  0.80987191370E+02 0.  0.
          6    2    1    2  502    0  0.27501492239E+02  0.63455167268E+01 -0.17606614880E+03  0.25171112311E+03  0.17765867017E+03 0.  0.
         24    2    5    5    0    0  0.15652920860E+02  0.26471010416E+02 -0.19572575290E+03  0.22082400325E+03  0.97513802812E+02 0.  0.
          4    1    6    6  501    0 -0.27153102865E+02  0.17452455862E+01 -0.15325392710E+03  0.15565057998E+03  0.00000000000E+00 0. -1.
         -3    1    6    6    0  501  0.42806023726E+02  0.24725764830E+02 -0.42471825802E+02  0.65173423269E+02  0.00000000000E+00 0.  1.
          5    1    5    5  502    0  0.11848571379E+02 -0.20125493689E+02  0.19659604101E+02  0.30887119862E+02  0.47000000000E+01 0. -1.
         11    1    4    4    0    0 -0.38558539905E+02  0.31365531816E+02 -0.15695718490E+03  0.16463934972E+03  0.00000000000E+00 0. -1.
        -12    1    4    4    0    0 -0.18813893050E+02 -0.11699198827E+02 -0.61249802542E-01  0.22154854466E+02  0.00000000000E+00 0.  1.
         -5    1    3    3    0  504  0.29870940716E+02 -0.26011849716E+02 -0.29982938500E+03  0.30247089039E+03  0.47000000000E+01 0.  1.
<mgrwt>
<rscale>  2 0.17868541E+03</rscale>
<asrwt>0</asrwt>
<pdfrwt beam="1">  1       21 0.83124812E-02 0.17988663E+03</pdfrwt>
<pdfrwt beam="2">  1       21 0.10568385E+00 0.17988663E+03</pdfrwt>
<totfact> 0.81200716E+04</totfact>
</mgrwt>
</event>
<event>
12    1  0.2791583E-001  0.4644041E+03  0.7546771E-02  0.1023629E+00
         21   -1    0    0  502  503  0.00000000000E+00  0.00000000000E+00  0.14522542445E+04  0.14522542445E+04  0.00000000000E+00 0. -1.
         21   -1    0    0  503  504 -0.00000000000E+00 -0.00000000000E+00 -0.15694634454E+03  0.15694634454E+03  0.00000000000E+00 0.  1.
         -6    2    1    2    0  504  0.17231008892E+03  0.39356658570E+03  0.45647053435E+03  0.65118085195E+03  0.17631145478E+03 0.  0.
        -24    2    3    3    0    0  0.18880131130E+03  0.39343493817E+03  0.45206144279E+03  0.63347469949E+03  0.80583255807E+02 0.  0.
          6    2    1    2  502    0 -0.17231008892E+03 -0.39356658570E+03  0.83883736560E+03  0.95801973709E+03  0.17195425729E+03 0.  0.
         24    2    5    5    0    0 -0.20671546251E+02 -0.10498348069E+03  0.20848331730E+03  0.24834180145E+03  0.82216255775E+02 0.  0.
          4    1    6    6  501    0 -0.46008149492E+01 -0.11341400202E+03  0.19537782148E+03  0.22595662522E+03  0.00000000000E+00 0. -1.
         -3    1    6    6    0  501 -0.16070731302E+02  0.84305213268E+01  0.13105495812E+02  0.22385176231E+02  0.00000000000E+00 0.  1.
          5    1    5    5  502    0 -0.15163854267E+03 -0.28858310501E+03  0.63035404831E+03  0.70967793564E+03  0.47000000000E+01 0. -1.
         13    1    4    4    0    0  0.13663720394E+02  0.60948762789E+02  0.10366977132E+03  0.12103251806E+03  0.00000000000E+00 0. -1.
        -14    1    4    4    0    0  0.17513759090E+03  0.33248617538E+03  0.34839167147E+03  0.51244218143E+03  0.00000000000E+00 0.  1.
         -5    1    3    3    0  504 -0.16491222372E+02  0.13164753103E+00  0.44090915567E+01  0.17706152455E+02  0.47000000000E+01 0.  1.
<mgrwt>
<rscale>  2 0.46399438E+03</rscale>
<asrwt>0</asrwt>
<pdfrwt beam="1">  1       21 0.22342372E+00 0.46440408E+03</pdfrwt>
<pdfrwt beam="2">  1       21 0.24145592E-01 0.46440408E+03</pdfrwt>
<totfact> 0.12832917E+03</totfact>
</mgrwt>
</event>
<event>
12    1  0.2791583E-001  0.1869556E+03  0.7546771E-02  0.1161887E+00
         21   -1    0    0  502  503  0.00000000000E+00  0.00000000000E+00  0.29774935243E+02  0.29774935243E+02  0.00000000000E+00 0.  1.
         21   -1    0    0  503  504 -0.00000000000E+00 -0.00000000000E+00 -0.11611678816E+04  0.11611678816E+04  0.00000000000E+00 0.  1.
         -6    2    1    2    0  504 -0.29869231022E+02 -0.56617741637E+02 -0.60832742893E+03  0.63640762524E+03  0.17565496021E+03 0.  0.
        -24    2    3    3    0    0 -0.29259578418E+01 -0.36886729695E+02 -0.59237152283E+03  0.59909899700E+03  0.81525426028E+02 0.  0.
          6    2    1    2  502    0  0.29869231022E+02  0.56617741637E+02 -0.52306551738E+03  0.55453519156E+03  0.17266732051E+03 0.  0.
         24    2    5    5    0    0  0.74552522193E+02  0.15496469100E+02 -0.43120244628E+03  0.44431509630E+03  0.75379944332E+02 0.  0.
          4    1    6    6  501    0  0.43260964400E+02 -0.17082980397E+02 -0.10295289693E+03  0.11297184714E+03  0.00000000000E+00 0. -1.
         -3    1    6    6    0  501  0.31291557793E+02  0.32579449497E+02 -0.32824954935E+03  0.33134324917E+03  0.00000000000E+00 0.  1.
          5    1    5    5  502    0 -0.44683291171E+02  0.41121272538E+02 -0.91863071106E+02  0.11022009526E+03  0.47000000000E+01 0. -1.
         13    1    4    4    0    0 -0.28428078599E+02  0.14498380651E+02 -0.19065487584E+03  0.19330711414E+03  0.00000000000E+00 0. -1.
        -14    1    4    4    0    0  0.25502120757E+02 -0.51385110346E+02 -0.40171664699E+03  0.40579188286E+03  0.00000000000E+00 0.  1.
         -5    1    3    3    0  504 -0.26943273180E+02 -0.19731011943E+02 -0.15955906104E+02  0.37308628245E+02  0.47000000000E+01 0.  1.
<mgrwt>
<rscale>  2 0.18625059E+03</rscale>
<asrwt>0</asrwt>
<pdfrwt beam="1">  1       21 0.45807594E-02 0.18695562E+03</pdfrwt>
<pdfrwt beam="2">  1       21 0.17864121E+00 0.18695562E+03</pdfrwt>
<totfact> 0.58181012E+04</totfact>
</mgrwt>
</event>
<event>
12    1  0.2791583E-001  0.2233286E+03  0.7546771E-02  0.1131784E+00
         21   -1    0    0  502  503  0.00000000000E+00  0.00000000000E+00  0.38976172802E+02  0.38976172802E+02  0.00000000000E+00 0. -1.
         21   -1    0    0  503  504 -0.00000000000E+00 -0.00000000000E+00 -0.26511336996E+04  0.26511336996E+04  0.00000000000E+00 0. -1.
         -6    2    1    2    0  504  0.12029154014E+03 -0.66887198008E+02 -0.22746899080E+04  0.22854370779E+04  0.17339119898E+03 0.  0.
        -24    2    3    3    0    0  0.11195541378E+03 -0.10830005204E+03 -0.19754252344E+04  0.19831690671E+04  0.79948585599E+02 0.  0.
          6    2    1    2  502    0 -0.12029154014E+03  0.66887198008E+02 -0.33746761881E+03  0.40467279445E+03  0.17587417359E+03 0.  0.
         24    2    5    5    0    0 -0.69675286410E+02  0.10386674196E+03 -0.17083394599E+03  0.22657629608E+03  0.80682310470E+02 0.  0.
          4    1    6    6  501    0 -0.78454433585E+02  0.48386276895E+02 -0.97089252573E+02  0.13387551272E+03  0.00000000000E+00 0. -1.
         -3    1    6    6    0  501  0.87791471751E+01  0.55480465068E+02 -0.73744693414E+02  0.92700783363E+02  0.00000000000E+00 0.  1.
          5    1    5    5  502    0 -0.50616253729E+02 -0.36979543955E+02 -0.16663367282E+03  0.17809649837E+03  0.47000000000E+01 0. -1.
         13    1    4    4    0    0  0.10486404106E+03 -0.54842148598E+02 -0.15100432141E+04  0.15146731122E+04  0.00000000000E+00 0. -1.
        -14    1    4    4    0    0  0.70913727237E+01 -0.53457903446E+02 -0.46538202023E+03  0.46849595490E+03  0.00000000000E+00 0.  1.
         -5    1    3    3    0  504  0.83361263576E+01  0.41412854035E+02 -0.29926467359E+03  0.30226801078E+03  0.47000000000E+01 0.  1.
<mgrwt>
<rscale>  2 0.22283950E+03</rscale>
<asrwt>0</asrwt>
<pdfrwt beam="1">  1       21 0.59963343E-02 0.22332863E+03</pdfrwt>
<pdfrwt beam="2">  1       21 0.40786672E+00 0.22332863E+03</pdfrwt>
<totfact> 0.14706041E+03</totfact>
</mgrwt>
</event>
<event>
12    1  0.2791583E-001  0.2473611E+03  0.7546771E-02  0.1115104E+00
         21   -1    0    0  502  503  0.00000000000E+00  0.00000000000E+00  0.47400229586E+03  0.47400229586E+03  0.00000000000E+00 0.  1.
         21   -1    0    0  503  504 -0.00000000000E+00 -0.00000000000E+00 -0.16397960991E+03  0.16397960991E+03  0.00000000000E+00 0.  1.
         -6    2    1    2    0  504  0.17614477574E+03  0.17855876740E+02  0.68623705102E+01  0.24670999914E+03  0.17167678116E+03 0.  0.
        -24    2    3    3    0    0  0.82722676409E+02  0.64289195746E+02  0.39253067263E+02  0.13737112685E+03  0.79711237102E+02 0.  0.
          6    2    1    2  502    0 -0.17614477574E+03 -0.17855876740E+02  0.30316031544E+03  0.39127190663E+03  0.17274754328E+03 0.  0.
         24    2    5    5    0    0 -0.16578559407E+03 -0.59219379451E+02  0.19323495014E+03  0.27327221199E+03  0.79662775400E+02 0.  0.
          4    1    6    6  501    0 -0.56287640827E+02 -0.61830440067E+02  0.87733590738E+02  0.12119605923E+03  0.00000000000E+00 0. -1.
         -3    1    6    6    0  501 -0.10949795324E+03  0.26110606161E+01  0.10550135940E+03  0.15207615276E+03  0.00000000000E+00 0.  1.
          5    1    5    5  502    0 -0.10359181669E+02  0.41363502711E+02  0.10992536530E+03  0.11799969465E+03  0.47000000000E+01 0. -1.
         11    1    4    4    0    0 -0.45556569102E+01  0.21271082727E+02  0.33440921432E+02  0.39893711240E+02  0.00000000000E+00 0. -1.
        -12    1    4    4    0    0  0.87278333320E+02  0.43018113019E+02  0.58121458304E+01  0.97477415610E+02  0.00000000000E+00 0.  1.
         -5    1    3    3    0  504  0.93422099327E+02 -0.46433319006E+02 -0.32390696753E+02  0.10933887229E+03  0.47000000000E+01 0.  1.
<mgrwt>
<rscale>  2 0.24717427E+03</rscale>
<asrwt>0</asrwt>
<pdfrwt beam="1">  1       21 0.72923430E-01 0.24736113E+03</pdfrwt>
<pdfrwt beam="2">  1       21 0.25227633E-01 0.24736113E+03</pdfrwt>
<totfact> 0.24474427E+04</totfact>
</mgrwt>
</event>
<event>
12    1  0.2791583E-001  0.2191668E+03  0.7546771E-02  0.1136142E+00
         21   -1    0    0  502  503  0.00000000000E+00  0.00000000000E+00  0.14940116070E+03  0.14940116070E+03  0.00000000000E+00 0.  1.
         21   -1    0    0  503  504 -0.00000000000E+00 -0.00000000000E+00 -0.33369474767E+03  0.33369474767E+03  0.00000000000E+00 0.  1.
         -6    2    1    2    0  504  0.40014853103E+02  0.12750011185E+03 -0.15942743692E+03  0.27101879408E+03  0.17371416785E+03 0.  0.
        -24    2    3    3    0    0 -0.17175112107E+02  0.77868129863E+01 -0.86070937941E+02  0.11934403683E+03  0.80493315472E+02 0.  0.
          6    2    1    2  502    0 -0.40014853103E+02 -0.12750011185E+03 -0.24866150056E+02  0.21207711430E+03  0.16279100098E+03 0.  0.
         24    2    5    5    0    0 -0.47690926166E+02 -0.32653977675E+02  0.26008082538E+02  0.10407253658E+03  0.82546749278E+02 0.  0.
          4    1    6    6  501    0 -0.44978113144E+02 -0.86958197445E+01  0.51538976533E+02  0.68955884774E+02  0.00000000000E+00 0. -1.
         -3    1    6    6    0  501 -0.27128130226E+01 -0.23958157930E+02 -0.25530893995E+02  0.35116651806E+02  0.00000000000E+00 0.  1.
          5    1    5    5  502    0  0.76760730633E+01 -0.94846134174E+02 -0.50874232594E+02  0.10800457772E+03  0.47000000000E+01 0. -1.
         11    1    4    4    0    0  0.28628666942E+02  0.10508662128E+02 -0.58068971215E+02  0.65589922767E+02  0.00000000000E+00 0. -1.
        -12    1    4    4    0    0 -0.45803779048E+02 -0.27218491417E+01 -0.28001966726E+02  0.53754114060E+02  0.00000000000E+00 0.  1.
         -5    1    3    3    0  504  0.57189965210E+02  0.11971329886E+03 -0.73356498975E+02  0.15167475725E+03  0.47000000000E+01 0.  1.
<mgrwt>
<rscale>  2 0.21699664E+03</rscale>
<asrwt>0</asrwt>
<pdfrwt beam="1">  1       21 0.22984794E-01 0.21916678E+03</pdfrwt>
<pdfrwt beam="2">  1       21 0.51337653E-01 0.21916678E+03</pdfrwt>
<totfact> 0.63323023E+04</totfact>
</mgrwt>
</event>
<event>
12    1  0.2791583E-001  0.2109607E+03  0.7546771E-02  0.1140929E+00
         21   -1    0    0  502  503  0.00000000000E+00  0.00000000000E+00  0.13023851209E+03  0.13023851209E+03  0.00000000000E+00 0.  1.
         21   -1    0    0  503  504 -0.00000000000E+00 -0.00000000000E+00 -0.38583442314E+03  0.38583442314E+03  0.00000000000E+00 0.  1.
         -6    2    1    2    0  504  0.10458425530E+03  0.57893723921E+02 -0.21586963857E+03  0.30140432074E+03  0.17307603525E+03 0.  0.
        -24    2    3    3    0    0  0.11327047840E+03  0.89783009869E+02 -0.13401316121E+03  0.21300211536E+03  0.80741461661E+02 0.  0.
          6    2    1    2  502    0 -0.10458425530E+03 -0.57893723921E+02 -0.39726272474E+02  0.21466861450E+03  0.17382430094E+03 0.  0.
         24    2    5    5    0    0 -0.76059904879E+02 -0.89968966462E+02  0.15074184116E+02  0.14490014172E+03  0.83001783035E+02 0.  0.
          4    1    6    6  501    0 -0.27037020756E+01 -0.31825364952E+02  0.36880960957E+02  0.48789026844E+02  0.00000000000E+00 0. -1.
         -3    1    6    6    0  501 -0.73356202804E+02 -0.58143601510E+02 -0.21806776841E+02  0.96111114875E+02  0.00000000000E+00 0.  1.
          5    1    5    5  502    0 -0.28524350424E+02  0.32075242541E+02 -0.54800456590E+02  0.69768472777E+02  0.47000000000E+01 0. -1.
         11    1    4    4    0    0  0.20983915244E+01 -0.13544971282E+02 -0.93444911305E+01  0.16588821794E+02  0.00000000000E+00 0. -1.
        -12    1    4    4    0    0  0.11117208688E+03  0.10332798115E+03 -0.12466867008E+03  0.19641329356E+03  0.00000000000E+00 0.  1.
         -5    1    3    3    0  504 -0.86862230991E+01 -0.31889285948E+02 -0.81856477363E+02  0.88402205381E+02  0.47000000000E+01 0.  1.
<mgrwt>
<rscale>  2 0.21080655E+03</rscale>
<asrwt>0</asrwt>
<pdfrwt beam="1">  1       21 0.20036695E-01 0.21096075E+03</pdfrwt>
<pdfrwt beam="2">  1       21 0.59359141E-01 0.21096075E+03</pdfrwt>
<totfact> 0.60482733E+04</totfact>
</mgrwt>
</event>
<event>
12    1  0.2791583E-001  0.2037208E+03  0.7546771E-02  0.1147673E+00
         21   -1    0    0  502  503  0.00000000000E+00  0.00000000000E+00  0.14322888759E+03  0.14322888759E+03  0.00000000000E+00 0.  1.
         21   -1    0    0  503  504 -0.00000000000E+00 -0.00000000000E+00 -0.30879027129E+03  0.30879027129E+03  0.00000000000E+00 0.  1.
         -6    2    1    2    0  504 -0.91048846185E+02 -0.37196514480E+02 -0.14748347964E+03  0.24749779076E+03  0.17271452337E+03 0.  0.
        -24    2    3    3    0    0 -0.85388646628E+02 -0.38302489107E+02 -0.17685722827E+03  0.21719650123E+03  0.84483958904E+02 0.  0.
          6    2    1    2  502    0  0.91048846185E+02  0.37196514480E+02 -0.18077904067E+02  0.20452136812E+03  0.17840601537E+03 0.  0.
         24    2    5    5    0    0 -0.67328109469E+01  0.62844601451E+02  0.13875861888E+01  0.10146763385E+03  0.79366117759E+02 0.  0.
          4    1    6    6  501    0 -0.34913949733E+02  0.31125988484E+01  0.45463800416E+01  0.35346028476E+02  0.00000000000E+00 0. -1.
         -3    1    6    6    0  501  0.28181138786E+02  0.59732002603E+02 -0.31587938528E+01  0.66121605371E+02  0.00000000000E+00 0.  1.
          5    1    5    5  502    0  0.97781657132E+02 -0.25648086971E+02 -0.19465490255E+02  0.10305373427E+03  0.47000000000E+01 0. -1.
         11    1    4    4    0    0 -0.13225865067E+02  0.26098989028E+02 -0.37522961851E+02  0.47582070164E+02  0.00000000000E+00 0. -1.
        -12    1    4    4    0    0 -0.72162781560E+02 -0.64401478134E+02 -0.13933426641E+03  0.16961443107E+03  0.00000000000E+00 0.  1.
         -5    1    3    3    0  504 -0.56601995574E+01  0.11059746264E+01  0.29373748627E+02  0.30301289532E+02  0.47000000000E+01 0.  1.
<mgrwt>
<rscale>  2 0.20246801E+03</rscale>
<asrwt>0</asrwt>
<pdfrwt beam="1">  1       21 0.22035214E-01 0.20372084E+03</pdfrwt>
<pdfrwt beam="2">  1       21 0.47506195E-01 0.20372084E+03</pdfrwt>
<totfact> 0.81167701E+04</totfact>
</mgrwt>
</event>
<event>
12    1  0.2791583E-001  0.2599685E+03  0.7546771E-02  0.1107235E+00
         21   -1    0    0  502  503  0.00000000000E+00  0.00000000000E+00  0.15477546514E+03  0.15477546514E+03  0.00000000000E+00 0. -1.
         21   -1    0    0  503  504 -0.00000000000E+00 -0.00000000000E+00 -0.54069187891E+03  0.54069187891E+03  0.00000000000E+00 0.  1.
         -6    2    1    2    0  504  0.14932115590E+03 -0.12303057282E+03 -0.34594191676E+03  0.43244340374E+03  0.17291083895E+03 0.  0.
        -24    2    3    3    0    0  0.14401697486E+03 -0.31837094776E+02 -0.22210424159E+03  0.27848807073E+03  0.80441418152E+02 0.  0.
          6    2    1    2  502    0 -0.14932115590E+03  0.12303057282E+03 -0.39974497015E+02  0.26302394031E+03  0.17363842697E+03 0.  0.
         24    2    5    5    0    0 -0.17038707907E+03  0.13768632624E+03 -0.40674990501E+02  0.23692518711E+03  0.80559346377E+02 0.  0.
          2    1    6    6  501    0 -0.53851307503E+02  0.34912691586E+02  0.24140337932E+02  0.68568325553E+02  0.00000000000E+00 0. -1.
         -1    1    6    6    0  501 -0.11653577157E+03  0.10277363465E+03 -0.64815328433E+02  0.16835686156E+03  0.00000000000E+00 0.  1.
          5    1    5    5  502    0  0.21065923174E+02 -0.14655753420E+02  0.70049348538E+00  0.26098753200E+02  0.47000000000E+01 0. -1.
         11    1    4    4    0    0  0.10761691765E+03 -0.40637380444E+02 -0.10574968899E+03  0.15625554190E+03  0.00000000000E+00 0. -1.
        -12    1    4    4    0    0  0.36400057211E+02  0.88002856677E+01 -0.11635455260E+03  0.12223252883E+03  0.00000000000E+00 0.  1.
         -5    1    3    3    0  504  0.53041810407E+01 -0.91193478039E+02 -0.12383767517E+03  0.15395533302E+03  0.47000000000E+01 0.  1.
<mgrwt>
<rscale>  2 0.25984709E+03</rscale>
<asrwt>0</asrwt>
<pdfrwt beam="1">  1       21 0.23811610E-01 0.25996852E+03</pdfrwt>
<pdfrwt beam="2">  1       21 0.83183365E-01 0.25996852E+03</pdfrwt>
<totfact> 0.20171399E+04</totfact>
</mgrwt>
</event>
<event>
12    1  0.2791583E-001  0.2301008E+03  0.7546771E-02  0.1126949E+00
         21   -1    0    0  502  503  0.00000000000E+00  0.00000000000E+00  0.14452876967E+03  0.14452876967E+03  0.00000000000E+00 0.  1.
         21   -1    0    0  503  504 -0.00000000000E+00 -0.00000000000E+00 -0.36981725822E+03  0.36981725822E+03  0.00000000000E+00 0. -1.
         -6    2    1    2    0  504 -0.66679977063E+02  0.13519849188E+03 -0.14829025427E+03  0.27374511930E+03  0.17384343323E+03 0.  0.
        -24    2    3    3    0    0 -0.44223800263E+02  0.16680341607E+03 -0.11762022645E+03  0.22408737352E+03  0.81249671873E+02 0.  0.
          6    2    1    2  502    0  0.66679977063E+02 -0.13519849188E+03 -0.76998234282E+02  0.24060090859E+03  0.17098309151E+03 0.  0.
         24    2    5    5    0    0  0.47464282831E+02 -0.16469912918E+03 -0.49368883934E+02  0.19560089185E+03  0.80273039662E+02 0.  0.
          2    1    6    6  501    0  0.25817287898E+02 -0.11951325406E+03 -0.70595324125E+02  0.14118657882E+03  0.00000000000E+00 0. -1.
         -1    1    6    6    0  501  0.21646994933E+02 -0.45185875119E+02  0.21226440192E+02  0.54414313035E+02  0.00000000000E+00 0.  1.
          5    1    5    5  502    0  0.19215694232E+02  0.29500637291E+02 -0.27629350348E+02  0.45000016734E+02  0.47000000000E+01 0. -1.
         13    1    4    4    0    0 -0.17065556842E+02  0.10893503298E+03 -0.11614061191E+03  0.16014592213E+03  0.00000000000E+00 0. -1.
        -14    1    4    4    0    0 -0.27158243421E+02  0.57868383092E+02 -0.14796145473E+01  0.63941451395E+02  0.00000000000E+00 0.  1.
         -5    1    3    3    0  504 -0.22456176800E+02 -0.31604924184E+02 -0.30670027815E+02  0.49657745773E+02  0.47000000000E+01 0.  1.
<mgrwt>
<rscale>  2 0.22956060E+03</rscale>
<asrwt>0</asrwt>
<pdfrwt beam="1">  1       21 0.22235196E-01 0.23010083E+03</pdfrwt>
<pdfrwt beam="2">  1       21 0.56894962E-01 0.23010083E+03</pdfrwt>
<totfact> 0.53989872E+04</totfact>
</mgrwt>
</event>
<event>
12    1  0.2791583E-001  0.1843928E+03  0.7546771E-02  0.1164577E+00
         21   -1    0    0  502  503  0.00000000000E+00  0.00000000000E+00  0.24266935726E+03  0.24266935726E+03  0.00000000000E+00 0. -1.
         21   -1    0    0  503  504 -0.00000000000E+00 -0.00000000000E+00 -0.18541914845E+03  0.18541914845E+03  0.00000000000E+00 0.  1.
         -6    2    1    2    0  504  0.41347227303E+02  0.46531422656E+02 -0.80451550613E+02  0.20117940145E+03  0.17356823751E+03 0.  0.
        -24    2    3    3    0    0 -0.24524943192E+02  0.70457641742E+02 -0.16944909008E+02  0.10648626372E+03  0.74070522488E+02 0.  0.
          6    2    1    2  502    0 -0.41347227303E+02 -0.46531422656E+02  0.13770175942E+03  0.22690910426E+03  0.16926665516E+03 0.  0.
         24    2    5    5    0    0 -0.32282316988E+02 -0.89933717860E+02  0.13111791798E+03  0.18183839541E+03  0.82116210528E+02 0.  0.
          4    1    6    6  501    0  0.13760532043E+02 -0.40027773765E+02  0.97032009229E+02  0.10586210715E+03  0.00000000000E+00 0. -1.
         -3    1    6    6    0  501 -0.46042849031E+02 -0.49905944095E+02  0.34085908755E+02  0.75976288265E+02  0.00000000000E+00 0.  1.
          5    1    5    5  502    0 -0.90649103146E+01  0.43402295204E+02  0.65838414355E+01  0.45070708847E+02  0.47000000000E+01 0. -1.
         13    1    4    4    0    0 -0.43088886944E+01  0.79957986177E+02 -0.23058019744E+02  0.83327776580E+02  0.00000000000E+00 0. -1.
        -14    1    4    4    0    0 -0.20216054498E+02 -0.95003444345E+01  0.61131107359E+01  0.23158487142E+02  0.00000000000E+00 0.  1.
         -5    1    3    3    0  504  0.65872170495E+02 -0.23926219086E+02 -0.63506641605E+02  0.94693137731E+02  0.47000000000E+01 0.  1.
<mgrwt>
<rscale>  2 0.18337356E+03</rscale>
<asrwt>0</asrwt>
<pdfrwt beam="1">  1       21 0.37333747E-01 0.18439279E+03</pdfrwt>
<pdfrwt beam="2">  1       21 0.28526023E-01 0.18439279E+03</pdfrwt>
<totfact> 0.81590049E+04</totfact>
</mgrwt>
</event>
<event>
12    1  0.2791583E-001  0.2357826E+03  0.7546771E-02  0.1122728E+00
         21   -1    0    0  502  503  0.00000000000E+00  0.00000000000E+00  0.65141797932E+03  0.65141797932E+03  0.00000000000E+00 0. -1.
         21   -1    0    0  503  504 -0.00000000000E+00 -0.00000000000E+00 -0.86122021942E+02  0.86122021942E+02  0.00000000000E+00 0.  1.
         -6    2    1    2    0  504  0.97815331557E+02 -0.12779421661E+03  0.24368669735E+03  0.33908206990E+03  0.17232017519E+03 0.  0.
        -24    2    3    3    0    0  0.63816552806E+02  0.17637841228E+00  0.11712990461E+03  0.15585788499E+03  0.80620606789E+02 0.  0.
          6    2    1    2  502    0 -0.97815331557E+02  0.12779421661E+03  0.32160926002E+03  0.39845793136E+03  0.17157215987E+03 0.  0.
         24    2    5    5    0    0 -0.30079608342E+02  0.13150987279E+03  0.16713589092E+03  0.22967983425E+03  0.81355950912E+02 0.  0.
          2    1    6    6  501    0 -0.35312451310E+02  0.55028553521E+02  0.12771228096E+03  0.14347661003E+03  0.00000000000E+00 0. -1.
         -1    1    6    6    0  501  0.52328429677E+01  0.76481319272E+02  0.39423609966E+02  0.86203224220E+02  0.00000000000E+00 0.  1.
          5    1    5    5  502    0 -0.67735723215E+02 -0.37156561851E+01  0.15447336910E+03  0.16877809710E+03  0.47000000000E+01 0. -1.
         11    1    4    4    0    0  0.25707693045E+02  0.38769367121E+02  0.69755238479E+02  0.83843560301E+02  0.00000000000E+00 0. -1.
        -12    1    4    4    0    0  0.38108859761E+02 -0.38592988709E+02  0.47374666130E+02  0.72014324691E+02  0.00000000000E+00 0.  1.
         -5    1    3    3    0  504  0.33998778751E+02 -0.12797059502E+03  0.12655679274E+03  0.18322418491E+03  0.47000000000E+01 0.  1.
<mgrwt>
<rscale>  2 0.23564597E+03</rscale>
<asrwt>0</asrwt>
<pdfrwt beam="1">  1       21 0.10021815E+00 0.23578262E+03</pdfrwt>
<pdfrwt beam="2">  1       21 0.13249542E-01 0.23578262E+03</pdfrwt>
<totfact> 0.39245811E+04</totfact>
</mgrwt>
</event>
<event>
12    1  0.2791583E-001  0.1919199E+03  0.7546771E-02  0.1156778E+00
         21   -1    0    0  502  503  0.00000000000E+00  0.00000000000E+00  0.10303102390E+04  0.10303102390E+04  0.00000000000E+00 0.  1.
         21   -1    0    0  503  504 -0.00000000000E+00 -0.00000000000E+00 -0.62650031864E+02  0.62650031864E+02  0.00000000000E+00 0.  1.
         -6    2    1    2    0  504  0.76320133493E+02  0.21301559108E+02  0.12541232102E+03  0.22912304363E+03  0.17461557681E+03 0.  0.
        -24    2    3    3    0    0 -0.21245368147E+02 -0.13849260682E+02  0.36203336072E+02  0.92247405780E+02  0.80967491262E+02 0.  0.
          6    2    1    2  502    0 -0.76320133493E+02 -0.21301559108E+02  0.84224788614E+03  0.86383722726E+03  0.17479912554E+03 0.  0.
         24    2    5    5    0    0 -0.10579726731E+02  0.37910857851E+02  0.25246108472E+03  0.26743260576E+03  0.78958442038E+02 0.  0.
          2    1    6    6  501    0  0.14162950084E+02  0.29724399438E+02  0.33665400850E+02  0.47090214391E+02  0.00000000000E+00 0. -1.
         -1    1    6    6    0  501 -0.24742676815E+02  0.81864584124E+01  0.21879568387E+03  0.22034239137E+03  0.00000000000E+00 0.  1.
          5    1    5    5  502    0 -0.65740406762E+02 -0.59212416959E+02  0.58978680143E+03  0.59640462149E+03  0.47000000000E+01 0. -1.
         13    1    4    4    0    0 -0.40366804786E+02 -0.30263095301E+02  0.42842194946E+02  0.66187517960E+02  0.00000000000E+00 0. -1.
        -14    1    4    4    0    0  0.19121436639E+02  0.16413834619E+02 -0.66388588734E+01  0.26059887820E+02  0.00000000000E+00 0.  1.
         -5    1    3    3    0  504  0.97565501640E+02  0.35150819790E+02  0.89208984951E+02  0.13687563785E+03  0.47000000000E+01 0.  1.
<mgrwt>
<rscale>  2 0.19187811E+03</rscale>
<asrwt>0</asrwt>
<pdfrwt beam="1">  1       21 0.15850925E+00 0.19191991E+03</pdfrwt>
<pdfrwt beam="2">  1       21 0.96384672E-02 0.19191991E+03</pdfrwt>
<totfact> 0.22362980E+04</totfact>
</mgrwt>
</event>
<event>
12    1  0.2791583E-001  0.2186652E+03  0.7546771E-02  0.1134957E+00
         21   -1    0    0  502  503  0.00000000000E+00  0.00000000000E+00  0.39718798165E+03  0.39718798165E+03  0.00000000000E+00 0.  1.
         21   -1    0    0  503  504 -0.00000000000E+00 -0.00000000000E+00 -0.14038570372E+03  0.14038570372E+03  0.00000000000E+00 0.  1.
         -6    2    1    2    0  504 -0.12922058419E+03 -0.43877054943E+02  0.26284492642E+02  0.21984281940E+03  0.17034328680E+03 0.  0.
        -24    2    3    3    0    0 -0.15659384013E+03 -0.51404589502E+02  0.33910005723E+01  0.18307107894E+03  0.79620716328E+02 0.  0.
          6    2    1    2  502    0  0.12922058419E+03  0.43877054943E+02  0.23051778529E+03  0.31773086598E+03  0.17085461227E+03 0.  0.
         24    2    5    5    0    0  0.16075425990E+03  0.40127574729E+02  0.17856289181E+03  0.25665851330E+03  0.80850057452E+02 0.  0.
          4    1    6    6  501    0  0.19923718598E+02  0.28736778076E+02  0.70793398360E+02  0.78958610856E+02  0.00000000000E+00 0. -1.
         -3    1    6    6    0  501  0.14083054130E+03  0.11390796653E+02  0.10776949345E+03  0.17769990245E+03  0.00000000000E+00 0.  1.
          5    1    5    5  502    0 -0.31533675705E+02  0.37494802140E+01  0.51954893474E+02  0.61072352674E+02  0.47000000000E+01 0. -1.
         13    1    4    4    0    0  0.66991970088E+01  0.46247809769E+01 -0.60998486673E+01  0.10172315047E+02  0.00000000000E+00 0. -1.
        -14    1    4    4    0    0 -0.16329303714E+03 -0.56029370479E+02  0.94908492396E+01  0.17289876389E+03  0.00000000000E+00 0.  1.
         -5    1    3    3    0  504  0.27373255944E+02  0.75275345587E+01  0.22893492070E+02  0.36771740463E+02  0.47000000000E+01 0.  1.
<mgrwt>
<rscale>  2 0.21856527E+03</rscale>
<asrwt>0</asrwt>
<pdfrwt beam="1">  1       21 0.61105843E-01 0.21866516E+03</pdfrwt>
<pdfrwt beam="2">  1       21 0.21597801E-01 0.21866516E+03</pdfrwt>
<totfact> 0.49173754E+04</totfact>
</mgrwt>
</event>
<event>
12    1  0.2791583E-001  0.2298588E+03  0.7546771E-02  0.1126787E+00
         21   -1    0    0  502  503  0.00000000000E+00  0.00000000000E+00  0.38380195497E+03  0.38380195497E+03  0.00000000000E+00 0. -1.
         21   -1    0    0  503  504 -0.00000000000E+00 -0.00000000000E+00 -0.14257068546E+03  0.14257068546E+03  0.00000000000E+00 0. -1.
         -6    2    1    2    0  504 -0.11552486732E+03 -0.96600563595E+02  0.70911961918E+02  0.24028921663E+03  0.17329955981E+03 0.  0.
        -24    2    3    3    0    0 -0.11103017932E+03 -0.96465985647E+02  0.10997063234E+03  0.20069262503E+03  0.80935793426E+02 0.  0.
          6    2    1    2  502    0  0.11552486732E+03  0.96600563595E+02  0.17031930759E+03  0.28608342381E+03  0.17365884655E+03 0.  0.
         24    2    5    5    0    0  0.47386367731E+02 -0.17331835645E+02  0.87140603993E+02  0.12935361345E+03  0.81197364952E+02 0.  0.
          2    1    6    6  501    0  0.57119837201E+02 -0.34083994627E+02  0.38170667997E+02  0.76690249621E+02  0.00000000000E+00 0. -1.
         -1    1    6    6    0  501 -0.97334694703E+01  0.16752158982E+02  0.48969935997E+02  0.52663363831E+02  0.00000000000E+00 0.  1.
          5    1    5    5  502    0  0.68138499584E+02  0.11393239924E+03  0.83178703596E+02  0.15672981036E+03  0.47000000000E+01 0. -1.
         11    1    4    4    0    0 -0.88607391830E+02 -0.26711799206E+02  0.45633885634E+02  0.10318547195E+03  0.00000000000E+00 0. -1.
        -12    1    4    4    0    0 -0.22422787490E+02 -0.69754186440E+02  0.64336746703E+02  0.97507153077E+02  0.00000000000E+00 0.  1.
         -5    1    3    3    0  504 -0.44946879948E+01 -0.13457794817E+00 -0.39058670419E+02  0.39596591599E+02  0.47000000000E+01 0.  1.
<mgrwt>
<rscale>  2 0.22979092E+03</rscale>
<asrwt>0</asrwt>
<pdfrwt beam="1">  1       21 0.59046454E-01 0.22985878E+03</pdfrwt>
<pdfrwt beam="2">  1       21 0.21933952E-01 0.22985878E+03</pdfrwt>
<totfact> 0.51168793E+04</totfact>
</mgrwt>
</event>
<event>
12    1  0.2791583E-001  0.1795058E+03  0.7546771E-02  0.1168332E+00
         21   -1    0    0  502  503  0.00000000000E+00  0.00000000000E+00  0.38631936936E+02  0.38631936936E+02  0.00000000000E+00 0. -1.
         21   -1    0    0  503  504 -0.00000000000E+00 -0.00000000000E+00 -0.83315007380E+03  0.83315007380E+03  0.00000000000E+00 0. -1.
         -6    2    1    2    0  504  0.45352573831E+02 -0.17628923026E+01 -0.39487830418E+03  0.43367890524E+03  0.17346052578E+03 0.  0.
        -24    2    3    3    0    0  0.82398588864E+02  0.17743749218E+02 -0.17811124544E+03  0.21285552775E+03  0.80495290920E+02 0.  0.
          6    2    1    2  502    0 -0.45352573831E+02  0.17628923026E+01 -0.39963983269E+03  0.43810310549E+03  0.17367317418E+03 0.  0.
         24    2    5    5    0    0  0.24585012121E+02 -0.24942367084E+02 -0.30506190900E+03  0.31739059390E+03  0.80296178437E+02 0.  0.
          4    1    6    6  501    0  0.11809457640E+02 -0.37002553285E+02 -0.29416196357E+03  0.29671520529E+03  0.00000000000E+00 0. -1.
         -3    1    6    6    0  501  0.12775554481E+02  0.12060186201E+02 -0.10899945434E+02  0.20675388605E+02  0.00000000000E+00 0.  1.
          5    1    5    5  502    0 -0.69937585952E+02  0.26705259386E+02 -0.94577923686E+02  0.12071251160E+03  0.47000000000E+01 0. -1.
         11    1    4    4    0    0  0.23674070025E+02  0.36840552126E+02 -0.32019238394E+02  0.54248682010E+02  0.00000000000E+00 0. -1.
        -12    1    4    4    0    0  0.58724518838E+02 -0.19096802908E+02 -0.14609200705E+03  0.15860684574E+03  0.00000000000E+00 0.  1.
         -5    1    3    3    0  504 -0.37046015032E+02 -0.19506641520E+02 -0.21676705874E+03  0.22082337749E+03  0.47000000000E+01 0.  1.
<mgrwt>
<rscale>  2 0.17945435E+03</rscale>
<asrwt>0</asrwt>
<pdfrwt beam="1">  1       21 0.59433753E-02 0.17950581E+03</pdfrwt>
<pdfrwt beam="2">  1       21 0.12817693E+00 0.17950581E+03</pdfrwt>
<totfact> 0.90303632E+04</totfact>
</mgrwt>
</event>
<event>
12    1  0.2791583E-001  0.1982569E+03  0.7546771E-02  0.1151516E+00
         21   -1    0    0  502  503  0.00000000000E+00  0.00000000000E+00  0.35329167552E+03  0.35329167552E+03  0.00000000000E+00 0.  1.
         21   -1    0    0  503  504 -0.00000000000E+00 -0.00000000000E+00 -0.12168412380E+03  0.12168412380E+03  0.00000000000E+00 0.  1.
         -6    2    1    2    0  504 -0.91383611014E+02  0.28736092004E+02  0.44103181003E+02  0.20310318595E+03  0.17357732058E+03 0.  0.
        -24    2    3    3    0    0 -0.68464277439E+02 -0.44375899730E+02 -0.49052794695E+00  0.11432622911E+03  0.80085381207E+02 0.  0.
          6    2    1    2  502    0  0.91383611014E+02 -0.28736092004E+02  0.18750437071E+03  0.27187261337E+03  0.17198866684E+03 0.  0.
         24    2    5    5    0    0  0.91162820126E+02  0.38144081107E+02  0.13620106705E+03  0.18745031021E+03  0.82590904081E+02 0.  0.
          2    1    6    6  501    0  0.25205626498E+01  0.39307863969E+02  0.51546611411E+02  0.64873064933E+02  0.00000000000E+00 0. -1.
         -1    1    6    6    0  501  0.88642257476E+02 -0.11637828626E+01  0.84654455640E+02  0.12257724528E+03  0.00000000000E+00 0.  1.
          5    1    5    5  502    0  0.22079088773E+00 -0.66880173110E+02  0.51303303660E+02  0.84422303157E+02  0.47000000000E+01 0. -1.
         13    1    4    4    0    0  0.27535916005E+01 -0.10541121810E+02 -0.28611039098E+02  0.30615177184E+02  0.00000000000E+00 0. -1.
        -14    1    4    4    0    0 -0.71217869039E+02 -0.33834777920E+02  0.28120511151E+02  0.83711051927E+02  0.00000000000E+00 0.  1.
         -5    1    3    3    0  504 -0.22919333575E+02  0.73111991734E+02  0.44593708950E+02  0.88776956834E+02  0.47000000000E+01 0.  1.
<mgrwt>
<rscale>  2 0.19790867E+03</rscale>
<asrwt>0</asrwt>
<pdfrwt beam="1">  1       21 0.54352565E-01 0.19825694E+03</pdfrwt>
<pdfrwt beam="2">  1       21 0.18720635E-01 0.19825694E+03</pdfrwt>
<totfact> 0.83296786E+04</totfact>
</mgrwt>
</event>
<event>
12    1  0.2791583E-001  0.1966214E+03  0.7546771E-02  0.1152658E+00
         21   -1    0    0  502  503  0.00000000000E+00  0.00000000000E+00  0.62861866254E+03  0.62861866254E+03  0.00000000000E+00 0. -1.
         21   -1    0    0  503  504 -0.00000000000E+00 -0.00000000000E+00 -0.91567896588E+02  0.91567896588E+02  0.00000000000E+00 0. -1.
         -6    2    1    2    0  504  0.77011906680E+01 -0.90892520972E+02  0.62074396785E+02  0.20618730560E+03  0.17418155915E+03 0.  0.
        -24    2    3    3    0    0 -0.26347319587E+02 -0.30944033349E+02 -0.24028953469E+02  0.95783505197E+02  0.83338915363E+02 0.  0.
          6    2    1    2  502    0 -0.77011906680E+01  0.90892520972E+02  0.47497636916E+03  0.51399925352E+03  0.17398828309E+03 0.  0.
         24    2    5    5    0    0  0.43530399374E+02  0.73296228058E+02  0.42177942756E+03  0.43793145522E+03  0.81356261233E+02 0.  0.
          4    1    6    6  501    0  0.56620162516E+02  0.72221841482E+02  0.26189036137E+03  0.27750387127E+03  0.00000000000E+00 0. -1.
         -3    1    6    6    0  501 -0.13089763142E+02  0.10743865756E+01  0.15988906619E+03  0.16042758396E+03  0.00000000000E+00 0.  1.
          5    1    5    5  502    0 -0.51231590042E+02  0.17596292914E+02  0.53196941599E+02  0.76067798299E+02  0.47000000000E+01 0. -1.
         11    1    4    4    0    0  0.12940700791E+02  0.11621793760E+02 -0.32868709865E+02  0.37187093398E+02  0.00000000000E+00 0. -1.
        -12    1    4    4    0    0 -0.39288020378E+02 -0.42565827108E+02  0.88397563967E+01  0.58596411800E+02  0.00000000000E+00 0.  1.
         -5    1    3    3    0  504  0.34048510255E+02 -0.59948487623E+02  0.86103350254E+02  0.11040380040E+03  0.47000000000E+01 0.  1.
<mgrwt>
<rscale>  2 0.19657858E+03</rscale>
<asrwt>0</asrwt>
<pdfrwt beam="1">  1       21 0.96710561E-01 0.19662140E+03</pdfrwt>
<pdfrwt beam="2">  1       21 0.14087369E-01 0.19662140E+03</pdfrwt>
<totfact> 0.38974996E+04</totfact>
</mgrwt>
</event>
<event>
12    1  0.2791583E-001  0.2088540E+03  0.7546771E-02  0.1142774E+00
         21   -1    0    0  502  503  0.00000000000E+00  0.00000000000E+00  0.28822199003E+03  0.28822199003E+03  0.00000000000E+00 0.  1.
         21   -1    0    0  503  504 -0.00000000000E+00 -0.00000000000E+00 -0.21944995531E+03  0.21944995531E+03  0.00000000000E+00 0.  1.
         -6    2    1    2    0  504  0.10289278991E+03 -0.48753921299E+02 -0.10805085472E+03  0.23514883432E+03  0.17508888033E+03 0.  0.
        -24    2    3    3    0    0  0.90035737473E+02  0.22672044292E+02 -0.10063100544E+03  0.16204536982E+03  0.86669758336E+02 0.  0.
          6    2    1    2  502    0 -0.10289278991E+03  0.48753921299E+02  0.17682288945E+03  0.27252311103E+03  0.17331659111E+03 0.  0.
         24    2    5    5    0    0 -0.23864467885E+02  0.14100813741E+01  0.16330085204E+03  0.17929301741E+03  0.70052242337E+02 0.  0.
          2    1    6    6  501    0  0.12799778571E+02 -0.21511551353E+02  0.96696468866E+02  0.99883873895E+02  0.00000000000E+00 0. -1.
         -1    1    6    6    0  501 -0.36664246456E+02  0.22921632727E+02  0.66604383176E+02  0.79409143512E+02  0.00000000000E+00 0.  1.
          5    1    5    5  502    0 -0.79028322024E+02  0.47343839925E+02  0.13522037408E+02  0.93230093620E+02  0.47000000000E+01 0. -1.
         11    1    4    4    0    0  0.34868158773E+02  0.53231871129E+02 -0.56204882882E+02  0.84902352500E+02  0.00000000000E+00 0. -1.
        -12    1    4    4    0    0  0.55167578700E+02 -0.30559826838E+02 -0.44426122554E+02  0.77143017320E+02  0.00000000000E+00 0.  1.
         -5    1    3    3    0  504  0.12857052435E+02 -0.71425965591E+02 -0.74198492869E+01  0.73103464496E+02  0.47000000000E+01 0.  1.
<mgrwt>
<rscale>  2 0.20848211E+03</rscale>
<asrwt>0</asrwt>
<pdfrwt beam="1">  1       21 0.44341845E-01 0.20885399E+03</pdfrwt>
<pdfrwt beam="2">  1       21 0.33761532E-01 0.20885399E+03</pdfrwt>
<totfact> 0.40938764E+04</totfact>
</mgrwt>
</event>
<event>
12    1  0.2791583E-001  0.2500812E+03  0.7546771E-02  0.1113448E+00
         21   -1    0    0  502  503  0.00000000000E+00  0.00000000000E+00  0.12241156729E+03  0.12241156729E+03  0.00000000000E+00 0.  1.
         21   -1    0    0  503  504 -0.00000000000E+00 -0.00000000000E+00 -0.80531376800E+03  0.80531376800E+03  0.00000000000E+00 0. -1.
         -6    2    1    2    0  504 -0.28123967342E+02 -0.17764155072E+03 -0.62363772811E+03  0.67191116935E+03  0.17376169166E+03 0.  0.
        -24    2    3    3    0    0 -0.52327081798E+02 -0.10476253028E+03 -0.53944735836E+03  0.55786183472E+03  0.80579544274E+02 0.  0.
          6    2    1    2  502    0  0.28123967342E+02  0.17764155072E+03 -0.59264472604E+02  0.25581416594E+03  0.17199166172E+03 0.  0.
         24    2    5    5    0    0  0.37826490848E+02  0.49136014601E+02  0.21180101100E+02  0.10382327406E+03  0.80532504084E+02 0.  0.
          4    1    6    6  501    0  0.20364271860E+02 -0.17637386832E+02  0.22027205540E+02  0.34799120198E+02  0.00000000000E+00 0. -1.
         -3    1    6    6    0  501  0.17462218988E+02  0.66773401434E+02 -0.84710443907E+00  0.69024153866E+02  0.00000000000E+00 0.  1.
          5    1    5    5  502    0 -0.97025235058E+01  0.12850553612E+03 -0.80444573705E+02  0.15199089188E+03  0.47000000000E+01 0. -1.
         11    1    4    4    0    0 -0.36296258611E+02 -0.22879787550E+00 -0.12905814557E+03  0.13406519188E+03  0.00000000000E+00 0. -1.
        -12    1    4    4    0    0 -0.16030823187E+02 -0.10453373240E+03 -0.41038921280E+03  0.42379664284E+03  0.00000000000E+00 0.  1.
         -5    1    3    3    0  504  0.24203114456E+02 -0.72879020440E+02 -0.84190369747E+02  0.11404933462E+03  0.47000000000E+01 0.  1.
<mgrwt>
<rscale>  2 0.24977398E+03</rscale>
<asrwt>0</asrwt>
<pdfrwt beam="1">  1       21 0.18832549E-01 0.25008119E+03</pdfrwt>
<pdfrwt beam="2">  1       21 0.12389442E+00 0.25008119E+03</pdfrwt>
<totfact> 0.12142202E+04</totfact>
</mgrwt>
</event>
<event>
12    1  0.2791583E-001  0.3003093E+03  0.7546771E-02  0.1085157E+00
         21   -1    0    0  502  503  0.00000000000E+00  0.00000000000E+00  0.12067452391E+04  0.12067452391E+04  0.00000000000E+00 0.  1.
         21   -1    0    0  503  504 -0.00000000000E+00 -0.00000000000E+00 -0.14485517628E+03  0.14485517628E+03  0.00000000000E+00 0.  1.
         -6    2    1    2    0  504 -0.19066106285E+03  0.15416728779E+03  0.60539864265E+02  0.30635067905E+03  0.17339685660E+03 0.  0.
        -24    2    3    3    0    0 -0.13148775961E+03  0.82045169767E+02  0.10426462923E+03  0.20321472608E+03  0.80029189523E+02 0.  0.
          6    2    1    2  502    0  0.19066106285E+03 -0.15416728779E+03  0.10013501986E+04  0.10452497364E+04  0.17241112966E+03 0.  0.
         24    2    5    5    0    0  0.68794765236E+02 -0.37058600820E+02  0.23221893454E+03  0.25775317739E+03  0.80031289346E+02 0.  0.
          4    1    6    6  501    0 -0.33434572802E+01  0.19744462052E+02  0.40302107141E+02  0.45003136871E+02  0.00000000000E+00 0. -1.
         -3    1    6    6    0  501  0.72138222516E+02 -0.56803062871E+02  0.19191682740E+03  0.21275004052E+03  0.00000000000E+00 0.  1.
          5    1    5    5  502    0  0.12186629762E+03 -0.11710868697E+03  0.76913126405E+03  0.78749655898E+03  0.47000000000E+01 0. -1.
         13    1    4    4    0    0 -0.81298314431E+02  0.89360624475E+02  0.55837586763E+02  0.13308859166E+03  0.00000000000E+00 0. -1.
        -14    1    4    4    0    0 -0.50189445183E+02 -0.73154547080E+01  0.48427042471E+02  0.70126134414E+02  0.00000000000E+00 0.  1.
         -5    1    3    3    0  504 -0.59173303239E+02  0.72122118024E+02 -0.43724764968E+02  0.10313595297E+03  0.47000000000E+01 0.  1.
<mgrwt>
<rscale>  2 0.30016716E+03</rscale>
<asrwt>0</asrwt>
<pdfrwt beam="1">  1       21 0.18565311E+00 0.30030928E+03</pdfrwt>
<pdfrwt beam="2">  1       21 0.22285413E-01 0.30030928E+03</pdfrwt>
<totfact> 0.28878266E+03</totfact>
</mgrwt>
</event>
<event>
12    1  0.2791583E-001  0.2236355E+03  0.7546771E-02  0.1131816E+00
         21   -1    0    0  502  503  0.00000000000E+00  0.00000000000E+00  0.11837774364E+03  0.11837774364E+03  0.00000000000E+00 0. -1.
         21   -1    0    0  503  504 -0.00000000000E+00 -0.00000000000E+00 -0.80683736223E+03  0.80683736223E+03  0.00000000000E+00 0. -1.
         -6    2    1    2    0  504  0.95944449659E+02 -0.96856501010E+02 -0.66745282571E+03  0.70392196133E+03  0.17727474125E+03 0.  0.
        -24    2    3    3    0    0  0.12827600203E+03 -0.44689257054E+02 -0.53721355756E+03  0.55986951398E+03  0.80022520956E+02 0.  0.
          6    2    1    2  502    0 -0.95944449659E+02  0.96856501010E+02 -0.21006792883E+02  0.22129314455E+03  0.17304002793E+03 0.  0.
         24    2    5    5    0    0  0.15429435748E+02  0.57735388249E+02  0.67710622607E+01  0.99932924331E+02  0.79807891448E+02 0.  0.
          4    1    6    6  501    0 -0.68843124725E+01  0.64629428423E+02 -0.16402048631E+02  0.67032708253E+02  0.00000000000E+00 0. -1.
         -3    1    6    6    0  501  0.22313748221E+02 -0.68940401735E+01  0.23173110891E+02  0.32900216078E+02  0.00000000000E+00 0.  1.
          5    1    5    5  502    0 -0.11137388541E+03  0.39121112760E+02 -0.27777855143E+02  0.12136022021E+03  0.47000000000E+01 0. -1.
         13    1    4    4    0    0  0.83170268926E+02 -0.60540011532E+02 -0.28110387028E+03  0.29933555170E+03  0.00000000000E+00 0. -1.
        -14    1    4    4    0    0  0.45105733103E+02  0.15850754478E+02 -0.25610968729E+03  0.26053396227E+03  0.00000000000E+00 0.  1.
         -5    1    3    3    0  504 -0.32331552370E+02 -0.52167243956E+02 -0.13023926815E+03  0.14405244735E+03  0.47000000000E+01 0.  1.
<mgrwt>
<rscale>  2 0.22279539E+03</rscale>
<asrwt>0</asrwt>
<pdfrwt beam="1">  1       21 0.18211961E-01 0.22363554E+03</pdfrwt>
<pdfrwt beam="2">  1       21 0.12412882E+00 0.22363554E+03</pdfrwt>
<totfact> 0.13064696E+04</totfact>
</mgrwt>
</event>
<event>
12    1  0.2791583E-001  0.2223253E+03  0.7546771E-02  0.1132252E+00
         21   -1    0    0  502  503  0.00000000000E+00  0.00000000000E+00  0.29257767354E+03  0.29257767354E+03  0.00000000000E+00 0. -1.
         21   -1    0    0  503  504 -0.00000000000E+00 -0.00000000000E+00 -0.17664491686E+03  0.17664491686E+03  0.00000000000E+00 0.  1.
         -6    2    1    2    0  504  0.72506527848E+02 -0.11739481948E+03  0.10807205719E+03  0.24675832924E+03  0.17369905952E+03 0.  0.
        -24    2    3    3    0    0  0.26606119089E+02 -0.13382981955E+03  0.11778225055E+03  0.19682502766E+03  0.79051418664E+02 0.  0.
          6    2    1    2  502    0 -0.72506527848E+02  0.11739481948E+03  0.78606994834E+01  0.22246426116E+03  0.17432675261E+03 0.  0.
         24    2    5    5    0    0 -0.32120384300E+02  0.14548463222E+03 -0.49458619584E+01  0.17141353946E+03  0.84620580598E+02 0.  0.
          2    1    6    6  501    0 -0.28964890877E+02  0.10081161453E+03 -0.42297415370E+02  0.11309738226E+03  0.00000000000E+00 0. -1.
         -1    1    6    6    0  501 -0.31554934222E+01  0.44673017691E+02  0.37351553412E+02  0.58316157200E+02  0.00000000000E+00 0.  1.
          5    1    5    5  502    0 -0.40386143548E+02 -0.28089812735E+02  0.12806561442E+02  0.51050721700E+02  0.47000000000E+01 0. -1.
         13    1    4    4    0    0 -0.24996003658E+02 -0.76285794932E+02  0.63926539953E+02  0.10262029632E+03  0.00000000000E+00 0. -1.
        -14    1    4    4    0    0  0.51602122747E+02 -0.57544024621E+02  0.53855710599E+02  0.94204731334E+02  0.00000000000E+00 0.  1.
         -5    1    3    3    0  504  0.45900408759E+02  0.16435000070E+02 -0.97101933581E+01  0.49933301579E+02  0.47000000000E+01 0.  1.
<mgrwt>
<rscale>  2 0.22220228E+03</rscale>
<asrwt>0</asrwt>
<pdfrwt beam="1">  1       21 0.45011950E-01 0.22232534E+03</pdfrwt>
<pdfrwt beam="2">  1       21 0.27176141E-01 0.22232534E+03</pdfrwt>
<totfact> 0.60316965E+04</totfact>
</mgrwt>
</event>
<event>
12    1  0.2791583E-001  0.2109801E+03  0.7546771E-02  0.1140982E+00
         21   -1    0    0  502  503  0.00000000000E+00  0.00000000000E+00  0.21887986998E+04  0.21887986998E+04  0.00000000000E+00 0.  1.
         21   -1    0    0  503  504 -0.00000000000E+00 -0.00000000000E+00 -0.29880589837E+02  0.29880589837E+02  0.00000000000E+00 0.  1.
         -6    2    1    2    0  504  0.11955010426E+03  0.19052046581E+02  0.44779867179E+03  0.49460204707E+03  0.17161680162E+03 0.  0.
        -24    2    3    3    0    0  0.10947271752E+03 -0.81722996977E+01  0.44466713307E+03  0.46502815168E+03  0.80444143721E+02 0.  0.
          6    2    1    2  502    0 -0.11955010426E+03 -0.19052046581E+02  0.17111194382E+04  0.17240772426E+04  0.17279293608E+03 0.  0.
         24    2    5    5    0    0  0.17803728590E+02 -0.54262138917E+01  0.30968208441E+03  0.31585123613E+03  0.59267135988E+02 0.  0.
          4    1    6    6  501    0  0.37433807988E+02 -0.31772082048E+01  0.13752632105E+03  0.14256533104E+03  0.00000000000E+00 0. -1.
         -3    1    6    6    0  501 -0.19630079398E+02 -0.22490056869E+01  0.17215576336E+03  0.17328590509E+03  0.00000000000E+00 0.  1.
          5    1    5    5  502    0 -0.13735383285E+03 -0.13625832689E+02  0.14014373538E+04  0.14082260065E+04  0.47000000000E+01 0. -1.
         11    1    4    4    0    0  0.45956645851E+02 -0.39780625942E+02  0.14799153394E+03  0.15998751706E+03  0.00000000000E+00 0. -1.
        -12    1    4    4    0    0  0.63516071668E+02  0.31608326244E+02  0.29667559913E+03  0.30504063462E+03  0.00000000000E+00 0.  1.
         -5    1    3    3    0  504  0.10077386736E+02  0.27224346279E+02  0.31315387251E+01  0.29573895390E+02  0.47000000000E+01 0.  1.
<mgrwt>
<rscale>  2 0.21073915E+03</rscale>
<asrwt>0</asrwt>
<pdfrwt beam="1">  1       21 0.33673814E+00 0.21098011E+03</pdfrwt>
<pdfrwt beam="2">  1       21 0.45970155E-02 0.21098011E+03</pdfrwt>
<totfact> 0.63499357E+03</totfact>
</mgrwt>
</event>
<event>
12    1  0.2791583E-001  0.1799727E+03  0.7546771E-02  0.1168002E+00
         21   -1    0    0  502  503  0.00000000000E+00  0.00000000000E+00  0.38664791299E+03  0.38664791299E+03  0.00000000000E+00 0. -1.
         21   -1    0    0  503  504 -0.00000000000E+00 -0.00000000000E+00 -0.10602172948E+03  0.10602172948E+03  0.00000000000E+00 0. -1.
         -6    2    1    2    0  504  0.11772874333E+02 -0.47919940437E+02  0.26411244168E+02  0.18119669992E+03  0.17233620915E+03 0.  0.
        -24    2    3    3    0    0  0.60700748061E+02 -0.55363647762E+02 -0.16438393191E+02  0.11556494672E+03  0.79594734948E+02 0.  0.
          6    2    1    2  502    0 -0.11772874333E+02  0.47919940437E+02  0.25421493933E+03  0.31147294255E+03  0.17307581373E+03 0.  0.
         24    2    5    5    0    0 -0.15782683191E+02  0.26244396347E+02  0.39164937971E+02  0.95245051506E+02  0.81239559587E+02 0.  0.
          2    1    6    6  501    0 -0.30134227903E+01  0.47635922830E+02 -0.12739690573E+01  0.47748139837E+02  0.00000000000E+00 0. -1.
         -1    1    6    6    0  501 -0.12769260401E+02 -0.21391526483E+02  0.40438907028E+02  0.47496911669E+02  0.00000000000E+00 0.  1.
          5    1    5    5  502    0  0.40098088586E+01  0.21675544090E+02  0.21505000136E+03  0.21622789104E+03  0.47000000000E+01 0. -1.
         11    1    4    4    0    0  0.63670369606E+01 -0.35165853747E+02 -0.39420767815E+02  0.53208771500E+02  0.00000000000E+00 0. -1.
        -12    1    4    4    0    0  0.54333711100E+02 -0.20197794015E+02  0.22982374624E+02  0.62356175222E+02  0.00000000000E+00 0.  1.
         -5    1    3    3    0  504 -0.48927873728E+02  0.74437073255E+01  0.42849637359E+02  0.65631753200E+02  0.47000000000E+01 0.  1.
<mgrwt>
<rscale>  2 0.17979461E+03</rscale>
<asrwt>0</asrwt>
<pdfrwt beam="1">  1       21 0.59484294E-01 0.17997266E+03</pdfrwt>
<pdfrwt beam="2">  1       21 0.16311035E-01 0.17997266E+03</pdfrwt>
<totfact> 0.89298672E+04</totfact>
</mgrwt>
</event>
<event>
12    1  0.2791583E-001  0.1927312E+03  0.7546771E-02  0.1156719E+00
         21   -1    0    0  502  503  0.00000000000E+00  0.00000000000E+00  0.13357033735E+03  0.13357033735E+03  0.00000000000E+00 0.  1.
         21   -1    0    0  503  504 -0.00000000000E+00 -0.00000000000E+00 -0.59471746804E+03  0.59471746804E+03  0.00000000000E+00 0.  1.
         -6    2    1    2    0  504 -0.55268285088E+02 -0.66966093741E+02 -0.49901357737E+03  0.53493912039E+03  0.17206472932E+03 0.  0.
        -24    2    3    3    0    0  0.18521409403E+02 -0.48113069133E+02 -0.14563905327E+03  0.17342010314E+03  0.78777460663E+02 0.  0.
          6    2    1    2  502    0  0.55268285088E+02  0.66966093741E+02  0.37866446683E+02  0.19334868500E+03  0.16855505082E+03 0.  0.
         24    2    5    5    0    0  0.28528564535E+02  0.10876509957E+03  0.37667930235E+02  0.14350594278E+03  0.80816809917E+02 0.  0.
          2    1    6    6  501    0  0.36106785222E+02  0.35183370038E+02 -0.15118162633E+02  0.52632008395E+02  0.00000000000E+00 0. -1.
         -1    1    6    6    0  501 -0.75782206867E+01  0.73581729530E+02  0.52786092868E+02  0.90873934380E+02  0.00000000000E+00 0.  1.
          5    1    5    5  502    0  0.26739720553E+02 -0.41799005827E+02  0.19851644755E+00  0.49842742222E+02  0.47000000000E+01 0. -1.
         13    1    4    4    0    0  0.59716681506E+01  0.21591676820E+02 -0.46102441776E+02  0.51257160145E+02  0.00000000000E+00 0. -1.
        -14    1    4    4    0    0  0.12549741252E+02 -0.69704745953E+02 -0.99536611497E+02  0.12216294300E+03  0.00000000000E+00 0.  1.
         -5    1    3    3    0  504 -0.73789694491E+02 -0.18853024608E+02 -0.35337452409E+03  0.36151901724E+03  0.47000000000E+01 0.  1.
<mgrwt>
<rscale>  2 0.19194470E+03</rscale>
<asrwt>0</asrwt>
<pdfrwt beam="1">  1       21 0.20549282E-01 0.19273119E+03</pdfrwt>
<pdfrwt beam="2">  1       21 0.91494996E-01 0.19273119E+03</pdfrwt>
<totfact> 0.22188926E+04</totfact>
</mgrwt>
</event>
<event>
12    1  0.2791583E-001  0.2052322E+03  0.7546771E-02  0.1146104E+00
         21   -1    0    0  502  503  0.00000000000E+00  0.00000000000E+00  0.33358751806E+03  0.33358751806E+03  0.00000000000E+00 0. -1.
         21   -1    0    0  503  504 -0.00000000000E+00 -0.00000000000E+00 -0.12700701756E+03  0.12700701756E+03  0.00000000000E+00 0. -1.
         -6    2    1    2    0  504  0.35235113526E+02 -0.99070966634E+02  0.13860187692E+03  0.24765042058E+03  0.17624891737E+03 0.  0.
        -24    2    3    3    0    0  0.86726360835E+02 -0.33844707333E+02  0.72883752274E+02  0.14159960559E+03  0.77919709195E+02 0.  0.
          6    2    1    2  502    0 -0.35235113526E+02  0.99070966634E+02  0.67978623585E+02  0.21294411504E+03  0.17224265793E+03 0.  0.
         24    2    5    5    0    0 -0.52762050656E+02  0.13251654906E+03  0.57961343107E+02  0.17359647957E+03  0.80198196117E+02 0.  0.
          2    1    6    6  501    0  0.32405718776E+01  0.94021927538E+02  0.21609174395E+02  0.96527615645E+02  0.00000000000E+00 0. -1.
         -1    1    6    6    0  501 -0.56002622534E+02  0.38494621522E+02  0.36352168711E+02  0.77068863926E+02  0.00000000000E+00 0.  1.
          5    1    5    5  502    0  0.17526937130E+02 -0.33445582426E+02  0.10017280479E+02  0.39347635472E+02  0.47000000000E+01 0. -1.
         11    1    4    4    0    0 -0.72671009518E+01 -0.12992404958E+02  0.35182612783E+02  0.38202481399E+02  0.00000000000E+00 0. -1.
        -12    1    4    4    0    0  0.93993461787E+02 -0.20852302375E+02  0.37701139491E+02  0.10339712420E+03  0.00000000000E+00 0.  1.
         -5    1    3    3    0  504 -0.51491247310E+02 -0.65226259301E+02  0.65718124648E+02  0.10605081499E+03  0.47000000000E+01 0.  1.
<mgrwt>
<rscale>  2 0.20436925E+03</rscale>
<asrwt>0</asrwt>
<pdfrwt beam="1">  1       21 0.51321156E-01 0.20523219E+03</pdfrwt>
<pdfrwt beam="2">  1       21 0.19539541E-01 0.20523219E+03</pdfrwt>
<totfact> 0.86530853E+04</totfact>
</mgrwt>
</event>
<event>
12    1  0.2791583E-001  0.2587367E+03  0.7546771E-02  0.1108374E+00
         21   -1    0    0  502  503  0.00000000000E+00  0.00000000000E+00  0.18403103226E+03  0.18403103226E+03  0.00000000000E+00 0.  1.
         21   -1    0    0  503  504 -0.00000000000E+00 -0.00000000000E+00 -0.41109619568E+03  0.41109619568E+03  0.00000000000E+00 0. -1.
         -6    2    1    2    0  504  0.12353994054E+03  0.14850408712E+03 -0.74589617547E+01  0.25575789163E+03  0.16745411974E+03 0.  0.
        -24    2    3    3    0    0  0.13369821869E+03  0.10686428232E+03  0.40890029097E+02  0.19097534093E+03  0.74191629226E+02 0.  0.
          6    2    1    2  502    0 -0.12353994054E+03 -0.14850408712E+03 -0.21960620167E+03  0.33936933632E+03  0.17213100192E+03 0.  0.
         24    2    5    5    0    0  0.66871503325E+01 -0.52007184335E+02 -0.78071104326E+02  0.12413685451E+03  0.81027131973E+02 0.  0.
          2    1    6    6  501    0  0.14298735826E+02  0.14600291953E+02  0.10124970696E+01  0.20460877832E+02  0.00000000000E+00 0. -1.
         -1    1    6    6    0  501 -0.76115854938E+01 -0.66607476288E+02 -0.79083601395E+02  0.10367597668E+03  0.00000000000E+00 0.  1.
          5    1    5    5  502    0 -0.13022709087E+03 -0.96496902781E+02 -0.14153509734E+03  0.21523248180E+03  0.47000000000E+01 0. -1.
         13    1    4    4    0    0  0.72245426192E+02  0.59311244649E+02 -0.15788838289E+02  0.94797219168E+02  0.00000000000E+00 0. -1.
        -14    1    4    4    0    0  0.61452792497E+02  0.47553037674E+02  0.56678867386E+02  0.96178121763E+02  0.00000000000E+00 0.  1.
         -5    1    3    3    0  504 -0.10158278148E+02  0.41639804794E+02 -0.48348990852E+02  0.64782550695E+02  0.47000000000E+01 0.  1.
<mgrwt>
<rscale>  2 0.25796130E+03</rscale>
<asrwt>0</asrwt>
<pdfrwt beam="1">  1       21 0.28312467E-01 0.25873667E+03</pdfrwt>
<pdfrwt beam="2">  1       21 0.63245568E-01 0.25873667E+03</pdfrwt>
<totfact> 0.26673133E+04</totfact>
</mgrwt>
</event>
<event>
12    1  0.2791583E-001  0.2217894E+03  0.7546771E-02  0.1132561E+00
         21   -1    0    0  502  503  0.00000000000E+00  0.00000000000E+00  0.19948206393E+03  0.19948206393E+03  0.00000000000E+00 0.  1.
         21   -1    0    0  503  504 -0.00000000000E+00 -0.00000000000E+00 -0.53198798801E+03  0.53198798801E+03  0.00000000000E+00 0. -1.
         -6    2    1    2    0  504 -0.30356059147E+02  0.13513330657E+03 -0.43415231140E+03  0.48752308976E+03  0.17322826755E+03 0.  0.
        -24    2    3    3    0    0  0.42216047419E+01  0.97947562867E+02 -0.13625543242E+03  0.18529298722E+03  0.78462737838E+02 0.  0.
          6    2    1    2  502    0  0.30356059147E+02 -0.13513330657E+03  0.10164638732E+03  0.24394696218E+03  0.17319246933E+03 0.  0.
         24    2    5    5    0    0 -0.36499140893E+02 -0.29693228399E+02  0.68626510914E+02  0.11471991356E+03  0.78975853710E+02 0.  0.
          4    1    6    6  501    0  0.55401921007E+01 -0.17082051919E+02  0.68515267960E+02  0.70829599533E+02  0.00000000000E+00 0. -1.
         -3    1    6    6    0  501 -0.42039332994E+02 -0.12611176480E+02  0.11124295322E+00  0.43890314031E+02  0.00000000000E+00 0.  1.
          5    1    5    5  502    0  0.66855200040E+02 -0.10544007817E+03  0.33019876402E+02  0.12922704862E+03  0.47000000000E+01 0. -1.
         11    1    4    4    0    0  0.15571714148E+02  0.76779484082E+02 -0.14053433369E+03  0.16089582470E+03  0.00000000000E+00 0. -1.
        -12    1    4    4    0    0 -0.11350109406E+02  0.21168078785E+02  0.42789012732E+01  0.24397162521E+02  0.00000000000E+00 0.  1.
         -5    1    3    3    0  504 -0.34577663889E+02  0.37185743703E+02 -0.29789687898E+03  0.30223010254E+03  0.47000000000E+01 0.  1.
<mgrwt>
<rscale>  2 0.22178240E+03</rscale>
<asrwt>0</asrwt>
<pdfrwt beam="1">  1       21 0.30689549E-01 0.22178939E+03</pdfrwt>
<pdfrwt beam="2">  1       21 0.81844305E-01 0.22178939E+03</pdfrwt>
<totfact> 0.13069428E+04</totfact>
</mgrwt>
</event>
<event>
12    1  0.2791583E-001  0.1880725E+03  0.7546771E-02  0.1162139E+00
         21   -1    0    0  502  503  0.00000000000E+00  0.00000000000E+00  0.69682306911E+03  0.69682306911E+03  0.00000000000E+00 0.  1.
         21   -1    0    0  503  504 -0.00000000000E+00 -0.00000000000E+00 -0.48705369922E+02  0.48705369922E+02  0.00000000000E+00 0.  1.
         -6    2    1    2    0  504 -0.19276266366E+02  0.41023879978E+02  0.29663327629E+03  0.34689007130E+03  0.17403128395E+03 0.  0.
        -24    2    3    3    0    0 -0.31137520553E+02  0.22655972334E+01  0.29204059443E+03  0.30582820872E+03  0.85255535500E+02 0.  0.
          6    2    1    2  502    0  0.19276266366E+02 -0.41023879978E+02  0.35148442290E+03  0.39863836773E+03  0.18252867039E+03 0.  0.
         24    2    5    5    0    0  0.46493771010E+02  0.35721169604E+02  0.13847409566E+03  0.17054609538E+03  0.80456340840E+02 0.  0.
          4    1    6    6  501    0 -0.88341243440E+00  0.47790609346E+02  0.48193095000E+02  0.67877073927E+02  0.00000000000E+00 0. -1.
         -3    1    6    6    0  501  0.47377183444E+02 -0.12069439742E+02  0.90281000660E+02  0.10266902146E+03  0.00000000000E+00 0.  1.
          5    1    5    5  502    0 -0.27217504643E+02 -0.76745049582E+02  0.21301032724E+03  0.22809227235E+03  0.47000000000E+01 0. -1.
         11    1    4    4    0    0  0.50740728384E+01  0.33491520743E+02  0.19178913018E+03  0.19475753806E+03  0.00000000000E+00 0. -1.
        -12    1    4    4    0    0 -0.36211593391E+02 -0.31225923509E+02  0.10025146426E+03  0.11107067066E+03  0.00000000000E+00 0.  1.
         -5    1    3    3    0  504  0.11861254187E+02  0.38758282744E+02  0.45926818560E+01  0.41061862583E+02  0.47000000000E+01 0.  1.
<mgrwt>
<rscale>  2 0.18597895E+03</rscale>
<asrwt>0</asrwt>
<pdfrwt beam="1">  1       21 0.10720354E+00 0.18807246E+03</pdfrwt>
<pdfrwt beam="2">  1       21 0.74931343E-02 0.18807246E+03</pdfrwt>
<totfact> 0.93629938E+04</totfact>
</mgrwt>
</event>
<event>
12    1  0.2791583E-001  0.2420071E+03  0.7546771E-02  0.1118619E+00
         21   -1    0    0  502  503  0.00000000000E+00  0.00000000000E+00  0.16081038380E+03  0.16081038380E+03  0.00000000000E+00 0.  1.
         21   -1    0    0  503  504 -0.00000000000E+00 -0.00000000000E+00 -0.41178853868E+03  0.41178853868E+03  0.00000000000E+00 0.  1.
         -6    2    1    2    0  504  0.38041402865E+02  0.16440641039E+03 -0.26501026143E+02  0.24251194103E+03  0.17214273451E+03 0.  0.
        -24    2    3    3    0    0 -0.35100772995E+02  0.72119275096E+02 -0.43978733101E+02  0.12337230249E+03  0.82784913787E+02 0.  0.
          6    2    1    2  502    0 -0.38041402865E+02 -0.16440641039E+03 -0.22447712874E+03  0.33008698145E+03  0.17346705131E+03 0.  0.
         24    2    5    5    0    0 -0.81834921703E+02 -0.68987344593E+02 -0.10582884510E+03  0.17158721609E+03  0.82378517503E+02 0.  0.
          4    1    6    6  501    0 -0.30846243342E+02 -0.58713831489E+02 -0.16703397852E+02  0.68394504430E+02  0.00000000000E+00 0. -1.
         -3    1    6    6    0  501 -0.50988678360E+02 -0.10273513104E+02 -0.89125447247E+02  0.10319271166E+03  0.00000000000E+00 0.  1.
          5    1    5    5  502    0  0.43793518838E+02 -0.95419065801E+02 -0.11864828364E+03  0.15849976537E+03  0.47000000000E+01 0. -1.
         11    1    4    4    0    0 -0.21590255966E+02  0.80242771078E+02 -0.72608209971E+01  0.83413194307E+02  0.00000000000E+00 0. -1.
        -12    1    4    4    0    0 -0.13510517028E+02 -0.81234959813E+01 -0.36717912104E+02  0.39959108181E+02  0.00000000000E+00 0.  1.
         -5    1    3    3    0  504  0.73142175859E+02  0.92287135298E+02  0.17477706958E+02  0.11913963854E+03  0.47000000000E+01 0.  1.
<mgrwt>
<rscale>  2 0.24176988E+03</rscale>
<asrwt>0</asrwt>
<pdfrwt beam="1">  1       21 0.24740059E-01 0.24200709E+03</pdfrwt>
<pdfrwt beam="2">  1       21 0.63352083E-01 0.24200709E+03</pdfrwt>
<totfact> 0.34747757E+04</totfact>
</mgrwt>
</event>
<event>
12    1  0.2791583E-001  0.1921831E+03  0.7546771E-02  0.1157705E+00
         21   -1    0    0  502  503  0.00000000000E+00  0.00000000000E+00  0.24747909148E+02  0.24747909148E+02  0.00000000000E+00 0.  1.
         21   -1    0    0  503  504 -0.00000000000E+00 -0.00000000000E+00 -0.14516391675E+04  0.14516391675E+04  0.00000000000E+00 0.  1.
         -6    2    1    2    0  504 -0.37998333359E+02 -0.62084635793E+02 -0.73189610690E+03  0.75670750340E+03  0.17786500235E+03 0.  0.
        -24    2    3    3    0    0 -0.21974173811E+01  0.14657370811E+02 -0.16909076559E+03  0.18754761077E+03  0.79766861145E+02 0.  0.
          6    2    1    2  502    0  0.37998333359E+02  0.62084635793E+02 -0.69499515141E+03  0.71967957321E+03  0.17211058153E+03 0.  0.
         24    2    5    5    0    0  0.19248227276E+02  0.53330307262E+02 -0.17153714596E+03  0.19579162888E+03  0.75463591016E+02 0.  0.
          4    1    6    6  501    0 -0.28923577250E+02  0.19185678829E+02 -0.74761441828E+02  0.82425340626E+02  0.00000000000E+00 0. -1.
         -3    1    6    6    0  501  0.48171804526E+02  0.34144628433E+02 -0.96775704134E+02  0.11336628825E+03  0.00000000000E+00 0.  1.
          5    1    5    5  502    0  0.18750106082E+02  0.87543285306E+01 -0.52345800545E+03  0.52388794433E+03  0.47000000000E+01 0. -1.
         13    1    4    4    0    0  0.33537820360E+02 -0.54671934393E+01 -0.42123229923E+02  0.54120625438E+02  0.00000000000E+00 0. -1.
        -14    1    4    4    0    0 -0.35735237741E+02  0.20124564250E+02 -0.12696753566E+03  0.13342698533E+03  0.00000000000E+00 0.  1.
         -5    1    3    3    0  504 -0.35800915977E+02 -0.76742006604E+02 -0.56280534132E+03  0.56915989263E+03  0.47000000000E+01 0.  1.
<mgrwt>
<rscale>  2 0.19084083E+03</rscale>
<asrwt>0</asrwt>
<pdfrwt beam="1">  1       21 0.38073702E-02 0.19218308E+03</pdfrwt>
<pdfrwt beam="2">  1       21 0.22332913E+00 0.19218308E+03</pdfrwt>
<totfact> 0.40868893E+04</totfact>
</mgrwt>
</event>
<event>
12    1  0.2791583E-001  0.1872650E+03  0.7546771E-02  0.1161101E+00
         21   -1    0    0  502  503  0.00000000000E+00  0.00000000000E+00  0.80997607083E+02  0.80997607083E+02  0.00000000000E+00 0. -1.
         21   -1    0    0  503  504 -0.00000000000E+00 -0.00000000000E+00 -0.45612932063E+03  0.45612932063E+03  0.00000000000E+00 0. -1.
         -6    2    1    2    0  504  0.10677580077E+01 -0.70744840270E+02 -0.25033670620E+03  0.31262858801E+03  0.17338452942E+03 0.  0.
        -24    2    3    3    0    0  0.24261590360E+02  0.25951084463E+02 -0.13601763250E+03  0.16104034199E+03  0.78556424611E+02 0.  0.
          6    2    1    2  502    0 -0.10677580077E+01  0.70744840270E+02 -0.12479500735E+03  0.22449833970E+03  0.17268392553E+03 0.  0.
         24    2    5    5    0    0 -0.45664593499E+02  0.86336229939E+01 -0.22044173580E+02  0.96332412529E+02  0.81450559049E+02 0.  0.
          4    1    6    6  501    0  0.53640697344E+01 -0.61554923425E+01 -0.39557819962E+02  0.40391638371E+02  0.00000000000E+00 0. -1.
         -3    1    6    6    0  501 -0.51028663233E+02  0.14789115336E+02  0.17513646383E+02  0.55940774158E+02  0.00000000000E+00 0.  1.
          5    1    5    5  502    0  0.44596835491E+02  0.62111217277E+02 -0.10275083377E+03  0.12816592717E+03  0.47000000000E+01 0. -1.
         13    1    4    4    0    0  0.10029491753E+02 -0.28042951010E+02 -0.38593733518E+02  0.48749093049E+02  0.00000000000E+00 0. -1.
        -14    1    4    4    0    0  0.14232098607E+02  0.53994035473E+02 -0.97423898979E+02  0.11229124895E+03  0.00000000000E+00 0.  1.
         -5    1    3    3    0  504 -0.23193832352E+02 -0.96695924733E+02 -0.11431907370E+03  0.15158824602E+03  0.47000000000E+01 0.  1.
<mgrwt>
<rscale>  2 0.18710263E+03</rscale>
<asrwt>0</asrwt>
<pdfrwt beam="1">  1       21 0.12461170E-01 0.18726497E+03</pdfrwt>
<pdfrwt beam="2">  1       21 0.70173743E-01 0.18726497E+03</pdfrwt>
<totfact> 0.10128540E+05</totfact>
</mgrwt>
</event>
<event>
12    1  0.2791583E-001  0.2114799E+03  0.7546771E-02  0.1140485E+00
         21   -1    0    0  502  503  0.00000000000E+00  0.00000000000E+00  0.10956953377E+04  0.10956953377E+04  0.00000000000E+00 0. -1.
         21   -1    0    0  503  504 -0.00000000000E+00 -0.00000000000E+00 -0.48217214754E+02  0.48217214754E+02  0.00000000000E+00 0.  1.
         -6    2    1    2    0  504 -0.99444551041E+02  0.69006106873E+02  0.29794619447E+03  0.36511742582E+03  0.17288070545E+03 0.  0.
        -24    2    3    3    0    0 -0.30944534784E+01  0.12003290414E+02  0.19899174044E+03  0.21562917759E+03  0.82125360530E+02 0.  0.
          6    2    1    2  502    0  0.99444551041E+02 -0.69006106873E+02  0.74953192847E+03  0.77879512664E+03  0.17341475126E+03 0.  0.
         24    2    5    5    0    0  0.96973884639E+02 -0.10989174727E+03  0.54421419463E+03  0.56937879104E+03  0.80888736125E+02 0.  0.
          4    1    6    6  501    0  0.74745392286E+02 -0.10240724650E+03  0.52163729326E+03  0.53682360560E+03  0.00000000000E+00 0. -1.
         -3    1    6    6    0  501  0.22228492353E+02 -0.74845007671E+01  0.22576901369E+02  0.32555185447E+02  0.00000000000E+00 0.  1.
          5    1    5    5  502    0  0.24706664014E+01  0.40885640396E+02  0.20531773384E+03  0.20941633559E+03  0.47000000000E+01 0. -1.
         11    1    4    4    0    0 -0.36770954284E+02  0.27493412606E+02  0.11462226787E+03  0.12347572680E+03  0.00000000000E+00 0. -1.
        -12    1    4    4    0    0  0.33676500806E+02 -0.15490122192E+02  0.84369472568E+02  0.92153450795E+02  0.00000000000E+00 0.  1.
         -5    1    3    3    0  504 -0.96350097562E+02  0.57002816459E+02  0.98954454029E+02  0.14948824822E+03  0.47000000000E+01 0.  1.
<mgrwt>
<rscale>  2 0.21137036E+03</rscale>
<asrwt>0</asrwt>
<pdfrwt beam="1">  1       21 0.16856849E+00 0.21147987E+03</pdfrwt>
<pdfrwt beam="2">  1       21 0.74180339E-02 0.21147987E+03</pdfrwt>
<totfact> 0.29519665E+04</totfact>
</mgrwt>
</event>
<event>
12    1  0.2791583E-001  0.2117645E+03  0.7546771E-02  0.1140360E+00
         21   -1    0    0  502  503  0.00000000000E+00  0.00000000000E+00  0.15322863984E+03  0.15322863984E+03  0.00000000000E+00 0. -1.
         21   -1    0    0  503  504 -0.00000000000E+00 -0.00000000000E+00 -0.48876153901E+03  0.48876153901E+03  0.00000000000E+00 0. -1.
         -6    2    1    2    0  504  0.27187191842E+02  0.11623737666E+03 -0.37197788246E+03  0.42803241337E+03  0.17491120810E+03 0.  0.
        -24    2    3    3    0    0  0.49057605001E+02  0.58166413366E+01 -0.21339089412E+03  0.23349969984E+03  0.80907071419E+02 0.  0.
          6    2    1    2  502    0 -0.27187191842E+02 -0.11623737666E+03  0.36444983289E+02  0.21395776549E+03  0.17377979592E+03 0.  0.
         24    2    5    5    0    0  0.42768450986E+01  0.31162466962E+01 -0.11712842214E+02  0.81381224625E+02  0.80359882101E+02 0.  0.
          2    1    6    6  501    0  0.29169937337E+02 -0.27104640149E+02 -0.13878530566E+02  0.42168238907E+02  0.00000000000E+00 0. -1.
         -1    1    6    6    0  501 -0.24893092238E+02  0.30220886845E+02  0.21656883527E+01  0.39212985718E+02  0.00000000000E+00 0.  1.
          5    1    5    5  502    0 -0.31464036941E+02 -0.11935362336E+03  0.48157825503E+02  0.13257654086E+03  0.47000000000E+01 0. -1.
         11    1    4    4    0    0 -0.12403796569E+02 -0.21077600866E+02 -0.87439035757E+02  0.90794847881E+02  0.00000000000E+00 0. -1.
        -12    1    4    4    0    0  0.61461401570E+02  0.26894242203E+02 -0.12595185836E+03  0.14270485196E+03  0.00000000000E+00 0.  1.
         -5    1    3    3    0  504 -0.21870413159E+02  0.11042073533E+03 -0.15858698834E+03  0.19453271353E+03  0.47000000000E+01 0.  1.
<mgrwt>
<rscale>  2 0.21153072E+03</rscale>
<asrwt>0</asrwt>
<pdfrwt beam="1">  1       21 0.23573637E-01 0.21176450E+03</pdfrwt>
<pdfrwt beam="2">  1       21 0.75194083E-01 0.21176450E+03</pdfrwt>
<totfact> 0.26488675E+04</totfact>
</mgrwt>
</event>
<event>
12    1  0.2791583E-001  0.2163897E+03  0.7546771E-02  0.1136981E+00
         21   -1    0    0  502  503  0.00000000000E+00  0.00000000000E+00  0.56745938784E+03  0.56745938784E+03  0.00000000000E+00 0.  1.
         21   -1    0    0  503  504 -0.00000000000E+00 -0.00000000000E+00 -0.89539663261E+02  0.89539663261E+02  0.00000000000E+00 0.  1.
         -6    2    1    2    0  504 -0.12103387986E+03 -0.35868788423E+02  0.14116573286E+03  0.25671447899E+03  0.17331702032E+03 0.  0.
        -24    2    3    3    0    0 -0.79562556078E+02 -0.87227974572E+02  0.81095460882E+02  0.16733794810E+03  0.86525113245E+02 0.  0.
          6    2    1    2  502    0  0.12103387986E+03  0.35868788423E+02  0.33675399172E+03  0.40028457211E+03  0.17575186392E+03 0.  0.
         24    2    5    5    0    0  0.78644035549E+02 -0.47580422100E+02  0.18136230728E+03  0.21882015348E+03  0.80877637021E+02 0.  0.
          4    1    6    6  501    0  0.26184296095E+02 -0.61926968947E+02  0.11264743068E+03  0.13118692954E+03  0.00000000000E+00 0. -1.
         -3    1    6    6    0  501  0.52459739454E+02  0.14346546847E+02  0.68714876605E+02  0.87633223932E+02  0.00000000000E+00 0.  1.
          5    1    5    5  502    0  0.42389844312E+02  0.83449210522E+02  0.15539168444E+03  0.18146441863E+03  0.47000000000E+01 0. -1.
         13    1    4    4    0    0 -0.34820033095E+01  0.10423874991E+02  0.32573231743E+02  0.34377273642E+02  0.00000000000E+00 0. -1.
        -14    1    4    4    0    0 -0.76080552769E+02 -0.97651849562E+02  0.48522229139E+02  0.13296067446E+03  0.00000000000E+00 0.  1.
         -5    1    3    3    0  504 -0.41471323782E+02  0.51359186149E+02  0.60070271976E+02  0.89376530887E+02  0.47000000000E+01 0.  1.
<mgrwt>
<rscale>  2 0.21589475E+03</rscale>
<asrwt>0</asrwt>
<pdfrwt beam="1">  1       21 0.87301441E-01 0.21638967E+03</pdfrwt>
<pdfrwt beam="2">  1       21 0.13775333E-01 0.21638967E+03</pdfrwt>
<totfact> 0.51003561E+04</totfact>
</mgrwt>
</event>
<event>
12    1  0.2791583E-001  0.1816061E+03  0.7546771E-02  0.1168208E+00
         21   -1    0    0  502  503  0.00000000000E+00  0.00000000000E+00  0.37813437073E+03  0.37813437073E+03  0.00000000000E+00 0. -1.
         21   -1    0    0  503  504 -0.00000000000E+00 -0.00000000000E+00 -0.12540741619E+03  0.12540741619E+03  0.00000000000E+00 0. -1.
         -6    2    1    2    0  504 -0.33329525426E+01  0.21698151632E+02 -0.17378518769E+02  0.18243571788E+03  0.18027440164E+03 0.  0.
        -24    2    3    3    0    0 -0.30625428409E+02  0.78454461449E+02  0.20176379199E+00  0.11688181428E+03  0.81045039414E+02 0.  0.
          6    2    1    2  502    0  0.33329525426E+01 -0.21698151632E+02  0.27010547331E+03  0.32110606903E+03  0.17225046445E+03 0.  0.
         24    2    5    5    0    0 -0.63857234868E+01  0.33308726645E+02  0.66157150193E+02  0.10959432510E+03  0.80522660392E+02 0.  0.
          2    1    6    6  501    0  0.34688336097E+02  0.85250973010E+01  0.13053239350E+02  0.38030842782E+02  0.00000000000E+00 0. -1.
         -1    1    6    6    0  501 -0.41074059584E+02  0.24783629344E+02  0.53103910843E+02  0.71563482315E+02  0.00000000000E+00 0.  1.
          5    1    5    5  502    0  0.97186760294E+01 -0.55006878278E+02  0.20394832311E+03  0.21151174393E+03  0.47000000000E+01 0. -1.
         13    1    4    4    0    0 -0.10929521295E+02  0.55205192818E+02 -0.38083093926E+02  0.67951378152E+02  0.00000000000E+00 0. -1.
        -14    1    4    4    0    0 -0.19695907115E+02  0.23249268631E+02  0.38284857718E+02  0.48930436125E+02  0.00000000000E+00 0.  1.
         -5    1    3    3    0  504  0.27292475867E+02 -0.56756309816E+02 -0.17580282561E+02  0.65553903605E+02  0.47000000000E+01 0.  1.
<mgrwt>
<rscale>  2 0.17958192E+03</rscale>
<asrwt>0</asrwt>
<pdfrwt beam="1">  1       21 0.58174518E-01 0.18160611E+03</pdfrwt>
<pdfrwt beam="2">  1       21 0.19293449E-01 0.18160611E+03</pdfrwt>
<totfact> 0.68663637E+04</totfact>
</mgrwt>
</event>
<event>
12    1  0.2791583E-001  0.1992004E+03  0.7546771E-02  0.1150554E+00
         21   -1    0    0  502  503  0.00000000000E+00  0.00000000000E+00  0.15741226206E+04  0.15741226206E+04  0.00000000000E+00 0.  1.
         21   -1    0    0  503  504 -0.00000000000E+00 -0.00000000000E+00 -0.26141796491E+02  0.26141796491E+02  0.00000000000E+00 0.  1.
         -6    2    1    2    0  504 -0.54804753227E+01 -0.98337003220E+02  0.61500440294E+03  0.64625927559E+03  0.17239615376E+03 0.  0.
        -24    2    3    3    0    0  0.60372345183E+01  0.14675815683E+01  0.14856533383E+03  0.16909985990E+03  0.80526406883E+02 0.  0.
          6    2    1    2  502    0  0.54804753227E+01  0.98337003220E+02  0.93297642115E+03  0.95400514148E+03  0.17314908533E+03 0.  0.
         24    2    5    5    0    0  0.23016794676E+02  0.84611206307E+02  0.33026162159E+03  0.35086076440E+03  0.79634843087E+02 0.  0.
          2    1    6    6  501    0  0.17719950246E+02 -0.11571615818E+02  0.78404481301E+02  0.81210600400E+02  0.00000000000E+00 0. -1.
         -1    1    6    6    0  501  0.52968444304E+01  0.96182822125E+02  0.25185714029E+03  0.26965016400E+03  0.00000000000E+00 0.  1.
          5    1    5    5  502    0 -0.17536319353E+02  0.13725796913E+02  0.60271479956E+03  0.60314437708E+03  0.47000000000E+01 0. -1.
         13    1    4    4    0    0  0.19734376750E+02 -0.21221124365E+02  0.14432894803E+02  0.32374221186E+02  0.00000000000E+00 0. -1.
        -14    1    4    4    0    0 -0.13697142232E+02  0.22688705933E+02  0.13413243902E+03  0.13672563871E+03  0.00000000000E+00 0.  1.
         -5    1    3    3    0  504 -0.11517709841E+02 -0.99804584788E+02  0.46643906912E+03  0.47715941569E+03  0.47000000000E+01 0.  1.
<mgrwt>
<rscale>  2 0.19903669E+03</rscale>
<asrwt>0</asrwt>
<pdfrwt beam="1">  1       21 0.24217264E+00 0.19920042E+03</pdfrwt>
<pdfrwt beam="2">  1       21 0.40218161E-02 0.19920042E+03</pdfrwt>
<totfact> 0.28565501E+04</totfact>
</mgrwt>
</event>
<event>
12    1  0.2791583E-001  0.1866753E+03  0.7546771E-02  0.1161911E+00
         21   -1    0    0  502  503  0.00000000000E+00  0.00000000000E+00  0.12443656581E+03  0.12443656581E+03  0.00000000000E+00 0.  1.
         21   -1    0    0  503  504 -0.00000000000E+00 -0.00000000000E+00 -0.28994835952E+03  0.28994835952E+03  0.00000000000E+00 0. -1.
         -6    2    1    2    0  504 -0.33921359144E+00 -0.68646761779E+02 -0.12631078921E+03  0.22539319141E+03  0.17359487980E+03 0.  0.
        -24    2    3    3    0    0  0.19926127767E+02 -0.98083044451E+02 -0.13793998303E+03  0.18751830597E+03  0.78219831122E+02 0.  0.
          6    2    1    2  502    0  0.33921359144E+00  0.68646761779E+02 -0.39201004503E+02  0.18899173392E+03  0.17166439284E+03 0.  0.
         24    2    5    5    0    0  0.56900105171E+02  0.79717644854E+02 -0.23048225992E+02  0.12895257035E+03  0.80653703015E+02 0.  0.
          2    1    6    6  501    0  0.62634925433E+02  0.78125791797E+02 -0.42374423401E+02  0.10873069938E+03  0.00000000000E+00 0. -1.
         -1    1    6    6    0  501 -0.57348202627E+01  0.15918530565E+01  0.19326197409E+02  0.20221870979E+02  0.00000000000E+00 0.  1.
          5    1    5    5  502    0 -0.56560891579E+02 -0.11070883075E+02 -0.16152778511E+02  0.60039163568E+02  0.47000000000E+01 0. -1.
         13    1    4    4    0    0 -0.85916480817E+01  0.10721661981E+02 -0.22336784587E+02  0.26224080500E+02  0.00000000000E+00 0. -1.
        -14    1    4    4    0    0  0.28517775849E+02 -0.10880470643E+03 -0.11560319844E+03  0.16129422547E+03  0.00000000000E+00 0.  1.
         -5    1    3    3    0  504 -0.20265341359E+02  0.29436282671E+02  0.11629193814E+02  0.37874885434E+02  0.47000000000E+01 0.  1.
<mgrwt>
<rscale>  2 0.18622523E+03</rscale>
<asrwt>0</asrwt>
<pdfrwt beam="1">  1       21 0.19144087E-01 0.18667532E+03</pdfrwt>
<pdfrwt beam="2">  1       21 0.44607439E-01 0.18667532E+03</pdfrwt>
<totfact> 0.12108194E+05</totfact>
</mgrwt>
</event>
<event>
12    1  0.2791583E-001  0.2393494E+03  0.7546771E-02  0.1120319E+00
         21   -1    0    0  502  503  0.00000000000E+00  0.00000000000E+00  0.48645938057E+03  0.48645938057E+03  0.00000000000E+00 0. -1.
         21   -1    0    0  503  504 -0.00000000000E+00 -0.00000000000E+00 -0.11951210506E+03  0.11951210506E+03  0.00000000000E+00 0.  1.
         -6    2    1    2    0  504 -0.10809979411E+03 -0.12567465002E+03  0.14391791482E+03  0.27881673096E+03  0.17189159408E+03 0.  0.
        -24    2    3    3    0    0 -0.70226469587E+02 -0.13275491173E+03  0.16305707015E+03  0.23553953046E+03  0.79596725210E+02 0.  0.
          6    2    1    2  502    0  0.10809979411E+03  0.12567465002E+03  0.22302936068E+03  0.32715475466E+03  0.17265125145E+03 0.  0.
         24    2    5    5    0    0  0.12001720789E+02  0.53934681377E+02  0.23216577623E+02  0.94069574802E+02  0.72505753356E+02 0.  0.
          2    1    6    6  501    0 -0.29252440070E+02  0.14644311241E+02  0.16694560706E+02  0.36726958204E+02  0.00000000000E+00 0. -1.
         -1    1    6    6    0  501  0.41254160859E+02  0.39290370137E+02  0.65220169175E+01  0.57342616598E+02  0.00000000000E+00 0.  1.
          5    1    5    5  502    0  0.96098073325E+02  0.71739968638E+02  0.19981278306E+03  0.23308517986E+03  0.47000000000E+01 0. -1.
         13    1    4    4    0    0 -0.25541931258E+02 -0.47513526037E+02  0.11701390072E+03  0.12884944070E+03  0.00000000000E+00 0. -1.
        -14    1    4    4    0    0 -0.44684538328E+02 -0.85241385695E+02  0.46043169434E+02  0.10669008976E+03  0.00000000000E+00 0.  1.
         -5    1    3    3    0  504 -0.37873324527E+02  0.70802617162E+01 -0.19139155326E+02  0.43277200502E+02  0.47000000000E+01 0.  1.
<mgrwt>
<rscale>  2 0.23921244E+03</rscale>
<asrwt>0</asrwt>
<pdfrwt beam="1">  1       21 0.74839904E-01 0.23934941E+03</pdfrwt>
<pdfrwt beam="2">  1       21 0.18386478E-01 0.23934941E+03</pdfrwt>
<totfact> 0.42163050E+04</totfact>
</mgrwt>
</event>
<event>
12    1  0.2791583E-001  0.1871046E+03  0.7546771E-02  0.1161565E+00
         21   -1    0    0  502  503  0.00000000000E+00  0.00000000000E+00  0.11364040377E+04  0.11364040377E+04  0.00000000000E+00 0. -1.
         21   -1    0    0  503  504 -0.00000000000E+00 -0.00000000000E+00 -0.36032769270E+02  0.36032769270E+02  0.00000000000E+00 0. -1.
         -6    2    1    2    0  504 -0.96168254049E-01  0.69654233084E+02  0.77788834603E+03  0.79960523610E+03  0.17148333233E+03 0.  0.
        -24    2    3    3    0    0 -0.63461001915E+02  0.18239867693E+02  0.45282157495E+03  0.46442016069E+03  0.79238345380E+02 0.  0.
          6    2    1    2  502    0  0.96168254049E-01 -0.69654233084E+02  0.32248292244E+03  0.37283157092E+03  0.17365604962E+03 0.  0.
         24    2    5    5    0    0  0.19231772724E+02 -0.97201440472E+02  0.30378200279E+03  0.33414262690E+03  0.97723123050E+02 0.  0.
          4    1    6    6  501    0  0.44229899576E+02 -0.91512452812E+02  0.17115050746E+03  0.19905604547E+03  0.00000000000E+00 0. -1.
         -3    1    6    6    0  501 -0.24998126852E+02 -0.56889876594E+01  0.13263149534E+03  0.13508658143E+03  0.00000000000E+00 0.  1.
          5    1    5    5  502    0 -0.19135604470E+02  0.27547207388E+02  0.18700919646E+02  0.38688944014E+02  0.47000000000E+01 0. -1.
         13    1    4    4    0    0 -0.46886832358E+02  0.41687775683E+02  0.19126589435E+03  0.20129304019E+03  0.00000000000E+00 0. -1.
        -14    1    4    4    0    0 -0.16574169557E+02 -0.23447907990E+02  0.26155568060E+03  0.26312712050E+03  0.00000000000E+00 0.  1.
         -5    1    3    3    0  504  0.63364833661E+02  0.51414365391E+02  0.32506677108E+03  0.33518507541E+03  0.47000000000E+01 0.  1.
<mgrwt>
<rscale>  2 0.18659889E+03</rscale>
<asrwt>0</asrwt>
<pdfrwt beam="1">  1       21 0.17483136E+00 0.18710464E+03</pdfrwt>
<pdfrwt beam="2">  1       21 0.55435038E-02 0.18710464E+03</pdfrwt>
<totfact> 0.44720269E+04</totfact>
</mgrwt>
</event>
<event>
12    1  0.2791583E-001  0.2326153E+03  0.7546771E-02  0.1125247E+00
         21   -1    0    0  502  503  0.00000000000E+00  0.00000000000E+00  0.11068469740E+03  0.11068469740E+03  0.00000000000E+00 0. -1.
         21   -1    0    0  503  504 -0.00000000000E+00 -0.00000000000E+00 -0.18840219115E+04  0.18840219115E+04  0.00000000000E+00 0. -1.
         -6    2    1    2    0  504  0.99417541299E+02 -0.11369871627E+03 -0.17453018223E+04  0.17604079111E+04  0.17362694714E+03 0.  0.
        -24    2    3    3    0    0  0.97482600651E+02 -0.58828909145E+02 -0.15906266541E+04  0.15962100506E+04  0.69495861950E+02 0.  0.
          6    2    1    2  502    0 -0.99417541299E+02  0.11369871627E+03 -0.28035391785E+02  0.23429869782E+03  0.17691424762E+03 0.  0.
         24    2    5    5    0    0  0.10936317843E+02  0.18807241269E+02  0.11450883007E+01  0.85786217966E+02  0.82973782568E+02 0.  0.
          4    1    6    6  501    0  0.44577819000E+01  0.76042069931E+01  0.42008087886E+02  0.42922898682E+02  0.00000000000E+00 0. -1.
         -3    1    6    6    0  501  0.64785359427E+01  0.11203034276E+02 -0.40862999585E+02  0.42863319284E+02  0.00000000000E+00 0.  1.
          5    1    5    5  502    0 -0.11035385914E+03  0.94891475003E+02 -0.29180480085E+02  0.14851247986E+03  0.47000000000E+01 0. -1.
         11    1    4    4    0    0  0.40964654510E+02 -0.31067743576E+02 -0.11453321340E+04  0.11464855013E+04  0.00000000000E+00 0. -1.
        -12    1    4    4    0    0  0.56517946141E+02 -0.27761165569E+02 -0.44529452015E+03  0.44972454928E+03  0.00000000000E+00 0.  1.
         -5    1    3    3    0  504  0.19349406477E+01 -0.54869807126E+02 -0.15467516822E+03  0.16419786050E+03  0.47000000000E+01 0.  1.
<mgrwt>
<rscale>  2 0.23199027E+03</rscale>
<asrwt>0</asrwt>
<pdfrwt beam="1">  1       21 0.17028416E-01 0.23261534E+03</pdfrwt>
<pdfrwt beam="2">  1       21 0.28984951E+00 0.23261534E+03</pdfrwt>
<totfact> 0.11572643E+03</totfact>
</mgrwt>
</event>
<event>
12    1  0.2791583E-001  0.2058062E+03  0.7546771E-02  0.1145458E+00
         21   -1    0    0  502  503  0.00000000000E+00  0.00000000000E+00  0.61262104383E+03  0.61262104383E+03  0.00000000000E+00 0. -1.
         21   -1    0    0  503  504 -0.00000000000E+00 -0.00000000000E+00 -0.27060459180E+03  0.27060459180E+03  0.00000000000E+00 0. -1.
         -6    2    1    2    0  504 -0.90848177336E+02 -0.54409579898E+02 -0.21057604983E+03  0.29444603031E+03  0.17647208927E+03 0.  0.
        -24    2    3    3    0    0 -0.97795080391E+02 -0.11185092394E+02 -0.21748410547E+03  0.24987667968E+03  0.73824351506E+02 0.  0.
          6    2    1    2  502    0  0.90848177336E+02  0.54409579898E+02  0.55259250186E+03  0.58877960532E+03  0.17346226339E+03 0.  0.
         24    2    5    5    0    0 -0.15683703445E+02  0.87031094796E+01  0.29994493822E+03  0.31076700763E+03  0.79293407043E+02 0.  0.
          2    1    6    6  501    0 -0.11332634648E+02 -0.21816038921E+01  0.99082424088E+00  0.11583166073E+02  0.00000000000E+00 0. -1.
         -1    1    6    6    0  501 -0.43510687969E+01  0.10884713372E+02  0.29895411398E+03  0.29918384156E+03  0.00000000000E+00 0.  1.
          5    1    5    5  502    0  0.10653188078E+03  0.45706470418E+02  0.25264756364E+03  0.27801259769E+03  0.47000000000E+01 0. -1.
         13    1    4    4    0    0  0.77916780761E+01  0.11939297666E+02 -0.34857145201E+02  0.37660027185E+02  0.00000000000E+00 0. -1.
        -14    1    4    4    0    0 -0.10558675847E+03 -0.23124390060E+02 -0.18262696027E+03  0.21221665250E+03  0.00000000000E+00 0.  1.
         -5    1    3    3    0  504  0.69469030551E+01 -0.43224487504E+02  0.69080556492E+01  0.44569350622E+02  0.47000000000E+01 0.  1.
<mgrwt>
<rscale>  2 0.20515943E+03</rscale>
<asrwt>0</asrwt>
<pdfrwt beam="1">  1       21 0.94249391E-01 0.20580620E+03</pdfrwt>
<pdfrwt beam="2">  1       21 0.41631476E-01 0.20580620E+03</pdfrwt>
<totfact> 0.51887200E+03</totfact>
</mgrwt>
</event>
<event>
12    1  0.2791583E-001  0.2429611E+03  0.7546771E-02  0.1117918E+00
         21   -1    0    0  502  503  0.00000000000E+00  0.00000000000E+00  0.44789096737E+02  0.44789096737E+02  0.00000000000E+00 0.  1.
         21   -1    0    0  503  504 -0.00000000000E+00 -0.00000000000E+00 -0.14930167762E+04  0.14930167762E+04  0.00000000000E+00 0.  1.
         -6    2    1    2    0  504 -0.37140526519E+02 -0.16413858156E+03 -0.98877688346E+03  0.10180702528E+04  0.17454633119E+03 0.  0.
        -24    2    3    3    0    0 -0.49492730034E+02 -0.30297025887E+02 -0.55594674395E+03  0.56482621411E+03  0.81144500283E+02 0.  0.
          6    2    1    2  502    0  0.37140526519E+02  0.16413858156E+03 -0.45945079595E+03  0.51973562008E+03  0.17524037264E+03 0.  0.
         24    2    5    5    0    0  0.50310626373E+02  0.26000534175E+02 -0.25280367403E+03  0.27077639718E+03  0.78758953533E+02 0.  0.
          2    1    6    6  501    0 -0.21371944967E+02  0.58063848101E+01 -0.68658096851E+02  0.72141585784E+02  0.00000000000E+00 0. -1.
         -1    1    6    6    0  501  0.71682571340E+02  0.20194149365E+02 -0.18414557718E+03  0.19863481139E+03  0.00000000000E+00 0.  1.
          5    1    5    5  502    0 -0.13170099854E+02  0.13813804739E+03 -0.20664712193E+03  0.24895922290E+03  0.47000000000E+01 0. -1.
         13    1    4    4    0    0  0.21817175447E+01 -0.72188216321E+01 -0.37845843533E+03  0.37853356331E+03  0.00000000000E+00 0. -1.
        -14    1    4    4    0    0 -0.51674447579E+02 -0.23078204255E+02 -0.17748830862E+03  0.18629265080E+03  0.00000000000E+00 0.  1.
         -5    1    3    3    0  504  0.12352203516E+02 -0.13384155568E+03 -0.43283013951E+03  0.45324403871E+03  0.47000000000E+01 0.  1.
<mgrwt>
<rscale>  2 0.24283594E+03</rscale>
<asrwt>0</asrwt>
<pdfrwt beam="1">  1       21 0.68906295E-02 0.24296107E+03</pdfrwt>
<pdfrwt beam="2">  1       21 0.22969491E+00 0.24296107E+03</pdfrwt>
<totfact> 0.13115000E+04</totfact>
</mgrwt>
</event>
<event>
12    1  0.2791583E-001  0.2001083E+03  0.7546771E-02  0.1149884E+00
         21   -1    0    0  502  503  0.00000000000E+00  0.00000000000E+00  0.38015341622E+03  0.38015341622E+03  0.00000000000E+00 0. -1.
         21   -1    0    0  503  504 -0.00000000000E+00 -0.00000000000E+00 -0.10574715544E+03  0.10574715544E+03  0.00000000000E+00 0. -1.
         -6    2    1    2    0  504 -0.68587045566E+02  0.73951025486E+02  0.16121035662E+03  0.25696712857E+03  0.17283052130E+03 0.  0.
        -24    2    3    3    0    0 -0.10785761688E+02  0.12677018563E+02  0.15138049649E+03  0.17203063175E+03  0.80009025032E+02 0.  0.
          6    2    1    2  502    0  0.68587045566E+02 -0.73951025486E+02  0.11319590416E+03  0.22893344309E+03  0.17153504498E+03 0.  0.
         24    2    5    5    0    0  0.95272055752E+02 -0.65074175784E+02  0.32767774114E+02  0.14360078620E+03  0.78968638174E+02 0.  0.
          4    1    6    6  501    0  0.61701350428E+02 -0.79859581201E+02  0.12495716583E+02  0.10168948956E+03  0.00000000000E+00 0. -1.
         -3    1    6    6    0  501  0.33570705324E+02  0.14785405416E+02  0.20272057530E+02  0.41911296637E+02  0.00000000000E+00 0.  1.
          5    1    5    5  502    0 -0.26685010186E+02 -0.88768497011E+01  0.80428130047E+02  0.85332656891E+02  0.47000000000E+01 0. -1.
         13    1    4    4    0    0 -0.16583959290E+02  0.25904599673E+02  0.15426611257E+03  0.15730260480E+03  0.00000000000E+00 0. -1.
        -14    1    4    4    0    0  0.57981976013E+01 -0.13227581110E+02 -0.28856160820E+01  0.14728026943E+02  0.00000000000E+00 0.  1.
         -5    1    3    3    0  504 -0.57801283878E+02  0.61274006923E+02  0.98298601275E+01  0.84936496822E+02  0.47000000000E+01 0.  1.
<mgrwt>
<rscale>  2 0.19982825E+03</rscale>
<asrwt>0</asrwt>
<pdfrwt beam="1">  1       21 0.58485140E-01 0.20010829E+03</pdfrwt>
<pdfrwt beam="2">  1       21 0.16268793E-01 0.20010829E+03</pdfrwt>
<totfact> 0.92282970E+04</totfact>
</mgrwt>
</event>
<event>
12    1  0.2791583E-001  0.2160821E+03  0.7546771E-02  0.1137065E+00
         21   -1    0    0  502  503  0.00000000000E+00  0.00000000000E+00  0.34390224297E+03  0.34390224297E+03  0.00000000000E+00 0.  1.
         21   -1    0    0  503  504 -0.00000000000E+00 -0.00000000000E+00 -0.19999060407E+03  0.19999060407E+03  0.00000000000E+00 0. -1.
         -6    2    1    2    0  504 -0.91550288134E+02 -0.89455358181E+02 -0.82906828430E+02  0.23144114267E+03  0.17409119436E+03 0.  0.
        -24    2    3    3    0    0 -0.11478415557E+03 -0.23573206689E+02 -0.73923782429E+02  0.16085038125E+03  0.81713041171E+02 0.  0.
          6    2    1    2  502    0  0.91550288134E+02  0.89455358181E+02  0.22681846733E+03  0.31245170438E+03  0.17261440868E+03 0.  0.
         24    2    5    5    0    0  0.44556569237E+02  0.97123198983E+01  0.19170601527E+03  0.21334400508E+03  0.81760939285E+02 0.  0.
          2    1    6    6  501    0 -0.34667645947E+01 -0.11877835564E+02  0.13648124886E+03  0.13704098921E+03  0.00000000000E+00 0. -1.
         -1    1    6    6    0  501  0.48023333832E+02  0.21590155462E+02  0.55224766414E+02  0.76303015869E+02  0.00000000000E+00 0.  1.
          5    1    5    5  502    0  0.46993718897E+02  0.79743038283E+02  0.35112452054E+02  0.99107699295E+02  0.47000000000E+01 0. -1.
         11    1    4    4    0    0 -0.26671710767E+01 -0.34014449823E+01 -0.42444214862E+02  0.42663743446E+02  0.00000000000E+00 0. -1.
        -12    1    4    4    0    0 -0.11211698449E+03 -0.20171761707E+02 -0.31479567567E+02  0.11818663781E+03  0.00000000000E+00 0.  1.
         -5    1    3    3    0  504  0.23233867435E+02 -0.65882151492E+02 -0.89830460007E+01  0.70590761412E+02  0.47000000000E+01 0.  1.
<mgrwt>
<rscale>  2 0.21578445E+03</rscale>
<asrwt>0</asrwt>
<pdfrwt beam="1">  1       21 0.52908037E-01 0.21608207E+03</pdfrwt>
<pdfrwt beam="2">  1       21 0.30767785E-01 0.21608207E+03</pdfrwt>
<totfact> 0.33916122E+04</totfact>
</mgrwt>
</event>
<event>
12    1  0.2791583E-001  0.2898002E+03  0.7546771E-02  0.1090540E+00
         21   -1    0    0  502  503  0.00000000000E+00  0.00000000000E+00  0.12366732546E+03  0.12366732546E+03  0.00000000000E+00 0. -1.
         21   -1    0    0  503  504 -0.00000000000E+00 -0.00000000000E+00 -0.71559909975E+03  0.71559909975E+03  0.00000000000E+00 0. -1.
         -6    2    1    2    0  504 -0.16099160914E+03  0.16726185172E+03 -0.39303498133E+03  0.48832434405E+03  0.17346280058E+03 0.  0.
        -24    2    3    3    0    0 -0.13959063025E+03  0.15365336501E+03 -0.21923111608E+03  0.31261701244E+03  0.81069190019E+02 0.  0.
          6    2    1    2  502    0  0.16099160914E+03 -0.16726185172E+03 -0.19889679295E+03  0.35094208116E+03  0.17235308186E+03 0.  0.
         24    2    5    5    0    0  0.92505190166E+02 -0.15417741793E+03 -0.78461797624E+02  0.21170031267E+03  0.79579408719E+02 0.  0.
          2    1    6    6  501    0  0.10668823594E+03 -0.12707932832E+03 -0.63630824883E+02  0.17770879902E+03  0.00000000000E+00 0. -1.
         -1    1    6    6    0  501 -0.14183045774E+02 -0.27098089603E+02 -0.14830972741E+02  0.33991513646E+02  0.00000000000E+00 0.  1.
          5    1    5    5  502    0  0.68486418977E+02 -0.13084433795E+02 -0.12043499533E+03  0.13924176849E+03  0.47000000000E+01 0. -1.
         11    1    4    4    0    0 -0.11183802660E+03  0.65004726353E+02 -0.11607827854E+03  0.17380312250E+03  0.00000000000E+00 0. -1.
        -12    1    4    4    0    0 -0.27752603655E+02  0.88648638661E+02 -0.10315283754E+03  0.13881388994E+03  0.00000000000E+00 0.  1.
         -5    1    3    3    0  504 -0.21400978891E+02  0.13608486708E+02 -0.17380386525E+03  0.17570733162E+03  0.47000000000E+01 0.  1.
<mgrwt>
<rscale>  2 0.28963436E+03</rscale>
<asrwt>0</asrwt>
<pdfrwt beam="1">  1       21 0.19025742E-01 0.28980022E+03</pdfrwt>
<pdfrwt beam="2">  1       21 0.11009217E+00 0.28980022E+03</pdfrwt>
<totfact> 0.15652476E+04</totfact>
</mgrwt>
</event>
<event>
12    1  0.2791583E-001  0.2332729E+03  0.7546771E-02  0.1124600E+00
         21   -1    0    0  502  503  0.00000000000E+00  0.00000000000E+00  0.64109035669E+03  0.64109035669E+03  0.00000000000E+00 0.  1.
         21   -1    0    0  503  504 -0.00000000000E+00 -0.00000000000E+00 -0.16720485299E+03  0.16720485299E+03  0.00000000000E+00 0.  1.
         -6    2    1    2    0  504 -0.26915303920E+01 -0.15517993951E+03 -0.47154165428E+02  0.23799110860E+03  0.17414991959E+03 0.  0.
        -24    2    3    3    0    0  0.28172061285E+02 -0.43934364502E+02 -0.72298732721E+02  0.11974357791E+03  0.79921988689E+02 0.  0.
          6    2    1    2  502    0  0.26915303920E+01  0.15517993951E+03  0.52103966914E+03  0.57030410108E+03  0.17226831669E+03 0.  0.
         24    2    5    5    0    0 -0.59349064569E+02  0.55213768264E+02  0.20067988033E+03  0.22899082109E+03  0.74789772706E+02 0.  0.
          2    1    6    6  501    0 -0.30123989896E+02  0.55548176690E+02  0.66779412466E+02  0.91937721476E+02  0.00000000000E+00 0. -1.
         -1    1    6    6    0  501 -0.29225074674E+02 -0.33440842574E+00  0.13390046787E+03  0.13705309961E+03  0.00000000000E+00 0.  1.
          5    1    5    5  502    0  0.62040594961E+02  0.99966171245E+02  0.32035978880E+03  0.34131327999E+03  0.47000000000E+01 0. -1.
         11    1    4    4    0    0  0.11014418617E+01  0.22318744010E+02 -0.86376564891E+01  0.23957224755E+02  0.00000000000E+00 0. -1.
        -12    1    4    4    0    0  0.27070619423E+02 -0.66253108511E+02 -0.63661076232E+02  0.95786353154E+02  0.00000000000E+00 0.  1.
         -5    1    3    3    0  504 -0.30863591677E+02 -0.11124557501E+03  0.25144567293E+02  0.11824753069E+03  0.47000000000E+01 0.  1.
<mgrwt>
<rscale>  2 0.23292179E+03</rscale>
<asrwt>0</asrwt>
<pdfrwt beam="1">  1       21 0.98629284E-01 0.23327291E+03</pdfrwt>
<pdfrwt beam="2">  1       21 0.25723824E-01 0.23327291E+03</pdfrwt>
<totfact> 0.11851235E+04</totfact>
</mgrwt>
</event>
<event>
12    1  0.2791583E-001  0.3712387E+03  0.7546771E-02  0.1054281E+00
         21   -1    0    0  502  503  0.00000000000E+00  0.00000000000E+00  0.23667356914E+03  0.23667356914E+03  0.00000000000E+00 0.  1.
         21   -1    0    0  503  504 -0.00000000000E+00 -0.00000000000E+00 -0.60733384000E+03  0.60733384000E+03  0.00000000000E+00 0. -1.
         -6    2    1    2    0  504  0.31601288746E+03 -0.89077507776E+02 -0.27252671497E+03  0.46001733142E+03  0.17189004452E+03 0.  0.
        -24    2    3    3    0    0  0.18238269297E+03 -0.25704336529E+02 -0.23094524116E+03  0.30631535786E+03  0.81050813913E+02 0.  0.
          6    2    1    2  502    0 -0.31601288746E+03  0.89077507776E+02 -0.98133555892E+02  0.38399007772E+03  0.17326060592E+03 0.  0.
         24    2    5    5    0    0 -0.28711866371E+03  0.24881875470E+02 -0.63778016859E+02  0.30551493239E+03  0.78838465855E+02 0.  0.
          4    1    6    6  501    0 -0.96677262550E+02 -0.15674700112E+02 -0.50902286556E+02  0.11037767933E+03  0.00000000000E+00 0. -1.
         -3    1    6    6    0  501 -0.19044140116E+03  0.40556575582E+02 -0.12875730303E+02  0.19513725306E+03  0.00000000000E+00 0.  1.
          5    1    5    5  502    0 -0.28894223747E+02  0.64195632306E+02 -0.34355539033E+02  0.78475145335E+02  0.47000000000E+01 0. -1.
         11    1    4    4    0    0  0.68201546633E+02 -0.48934576746E+02 -0.11004657021E+03  0.13840625484E+03  0.00000000000E+00 0. -1.
        -12    1    4    4    0    0  0.11418114634E+03  0.23230240216E+02 -0.12089867095E+03  0.16790910302E+03  0.00000000000E+00 0.  1.
         -5    1    3    3    0  504  0.13363019449E+03 -0.63373171246E+02 -0.41581473810E+02  0.15370197356E+03  0.47000000000E+01 0.  1.
<mgrwt>
<rscale>  2 0.37107920E+03</rscale>
<asrwt>0</asrwt>
<pdfrwt beam="1">  1       21 0.36411319E-01 0.37123872E+03</pdfrwt>
<pdfrwt beam="2">  1       21 0.93435975E-01 0.37123872E+03</pdfrwt>
<totfact> 0.63564814E+03</totfact>
</mgrwt>
</event>
<event>
12    1  0.2791583E-001  0.2495599E+03  0.7546771E-02  0.1113604E+00
         21   -1    0    0  502  503  0.00000000000E+00  0.00000000000E+00  0.12643364674E+03  0.12643364674E+03  0.00000000000E+00 0.  1.
         21   -1    0    0  503  504 -0.00000000000E+00 -0.00000000000E+00 -0.72428808532E+03  0.72428808532E+03  0.00000000000E+00 0. -1.
         -6    2    1    2    0  504 -0.55959510457E+02 -0.17082706039E+03 -0.53958987229E+03  0.59445055570E+03  0.17291871362E+03 0.  0.
        -24    2    3    3    0    0  0.12549447834E+02 -0.26022290284E+02 -0.24136045576E+03  0.25588774957E+03  0.79931361443E+02 0.  0.
          6    2    1    2  502    0  0.55959510457E+02  0.17082706039E+03 -0.58264566285E+02  0.25627117636E+03  0.17310922788E+03 0.  0.
         24    2    5    5    0    0  0.27866518743E+02  0.16025017114E+03  0.93061192093E+01  0.18218356398E+03  0.81532735224E+02 0.  0.
          4    1    6    6  501    0 -0.12031561974E+02  0.11537142940E+03 -0.15855016537E+02  0.11707564544E+03  0.00000000000E+00 0. -1.
         -3    1    6    6    0  501  0.39898080717E+02  0.44878741742E+02  0.25161135747E+02  0.65107918545E+02  0.00000000000E+00 0.  1.
          5    1    5    5  502    0  0.28092991714E+02  0.10576889244E+02 -0.67570685494E+02  0.74087612376E+02  0.47000000000E+01 0. -1.
         11    1    4    4    0    0 -0.23131678320E+02 -0.35568846151E+02 -0.17364739057E+03  0.17875579322E+03  0.00000000000E+00 0. -1.
        -12    1    4    4    0    0  0.35681126154E+02  0.95465558678E+01 -0.67713065186E+02  0.77131956344E+02  0.00000000000E+00 0.  1.
         -5    1    3    3    0  504 -0.68508958291E+02 -0.14480477010E+03 -0.29822941653E+03  0.33856280613E+03  0.47000000000E+01 0.  1.
<mgrwt>
<rscale>  2 0.24952689E+03</rscale>
<asrwt>0</asrwt>
<pdfrwt beam="1">  1       21 0.19451330E-01 0.24955992E+03</pdfrwt>
<pdfrwt beam="2">  1       21 0.11142894E+00 0.24955992E+03</pdfrwt>
<totfact> 0.14869727E+04</totfact>
</mgrwt>
</event>
<event>
12    1  0.2791583E-001  0.4253900E+03  0.7546771E-02  0.1035391E+00
         21   -1    0    0  502  503  0.00000000000E+00  0.00000000000E+00  0.34938508543E+03  0.34938508543E+03  0.00000000000E+00 0.  1.
         21   -1    0    0  503  504 -0.00000000000E+00 -0.00000000000E+00 -0.15180836290E+04  0.15180836290E+04  0.00000000000E+00 0.  1.
         -6    2    1    2    0  504  0.38506882778E+03  0.49723862745E+02 -0.13428021041E+04  0.14085716556E+04  0.17379917542E+03 0.  0.
        -24    2    3    3    0    0  0.33628444787E+03  0.25170393091E+02 -0.93705844750E+03  0.99914181605E+03  0.80529845322E+02 0.  0.
          6    2    1    2  502    0 -0.38506882778E+03 -0.49723862745E+02  0.17410356056E+03  0.45889705884E+03  0.17182548170E+03 0.  0.
         24    2    5    5    0    0 -0.29786852154E+03 -0.18987318542E+02  0.66019420716E+02  0.31658437549E+03  0.82346393363E+02 0.  0.
          4    1    6    6  501    0 -0.59031110554E+02 -0.13566169564E+02 -0.18248140934E+02  0.63259051664E+02  0.00000000000E+00 0. -1.
         -3    1    6    6    0  501 -0.23883741099E+03 -0.54211489775E+01  0.84267561650E+02  0.25332532382E+03  0.00000000000E+00 0.  1.
          5    1    5    5  502    0 -0.87200306238E+02 -0.30736544204E+02  0.10808413985E+03  0.14231268336E+03  0.47000000000E+01 0. -1.
         13    1    4    4    0    0  0.52818425764E+02  0.10346505725E+02 -0.81011872818E+02  0.97261296610E+02  0.00000000000E+00 0. -1.
        -14    1    4    4    0    0  0.28346602210E+03  0.14823887366E+02 -0.85604657468E+03  0.90188051944E+03  0.00000000000E+00 0.  1.
         -5    1    3    3    0  504  0.48784379914E+02  0.24553469655E+02 -0.40574365664E+03  0.40942983954E+03  0.47000000000E+01 0.  1.
<mgrwt>
<rscale>  2 0.42518918E+03</rscale>
<asrwt>0</asrwt>
<pdfrwt beam="1">  1       21 0.53751552E-01 0.42538996E+03</pdfrwt>
<pdfrwt beam="2">  1       21 0.23355132E+00 0.42538996E+03</pdfrwt>
<totfact> 0.22168781E+02</totfact>
</mgrwt>
</event>
<event>
12    1  0.2791583E-001  0.2106244E+03  0.7546771E-02  0.1141228E+00
         21   -1    0    0  502  503  0.00000000000E+00  0.00000000000E+00  0.14101504168E+04  0.14101504168E+04  0.00000000000E+00 0.  1.
         21   -1    0    0  503  504 -0.00000000000E+00 -0.00000000000E+00 -0.76952050013E+02  0.76952050013E+02  0.00000000000E+00 0.  1.
         -6    2    1    2    0  504 -0.11862774322E+03 -0.18900956075E+02  0.94667333716E+02  0.23092108071E+03  0.17301113791E+03 0.  0.
        -24    2    3    3    0    0 -0.34028406963E+02  0.37643848893E+02  0.85544232314E+02  0.12864848593E+03  0.81594273143E+02 0.  0.
          6    2    1    2  502    0  0.11862774322E+03  0.18900956075E+02  0.12385310330E+04  0.12561813861E+04  0.17205454746E+03 0.  0.
         24    2    5    5    0    0  0.50448943126E+02  0.53688321135E+02  0.99702904675E+03  0.10027966807E+04  0.78145575713E+02 0.  0.
          2    1    6    6  501    0 -0.45220022641E+01  0.44750405697E+02  0.62568159582E+03  0.62729618735E+03  0.00000000000E+00 0. -1.
         -1    1    6    6    0  501  0.54970945390E+02  0.89379154378E+01  0.37134745093E+03  0.37550049332E+03  0.00000000000E+00 0.  1.
          5    1    5    5  502    0  0.68178800096E+02 -0.34787365060E+02  0.24150198629E+03  0.25338470540E+03  0.47000000000E+01 0. -1.
         11    1    4    4    0    0 -0.58420205215E+02  0.32264019861E+02  0.77789503720E+02  0.10249436201E+03  0.00000000000E+00 0. -1.
        -12    1    4    4    0    0  0.24391798252E+02  0.53798290319E+01  0.77547285945E+01  0.26154123919E+02  0.00000000000E+00 0.  1.
         -5    1    3    3    0  504 -0.84599336260E+02 -0.56544804969E+02  0.91231014013E+01  0.10227259478E+03  0.47000000000E+01 0.  1.
<mgrwt>
<rscale>  2 0.21042787E+03</rscale>
<asrwt>0</asrwt>
<pdfrwt beam="1">  1       21 0.21694620E+00 0.21062441E+03</pdfrwt>
<pdfrwt beam="2">  1       21 0.11838778E-01 0.21062441E+03</pdfrwt>
<totfact> 0.62127520E+03</totfact>
</mgrwt>
</event>
<event>
12    1  0.2791583E-001  0.2326645E+03  0.7546771E-02  0.1124796E+00
         21   -1    0    0  502  503  0.00000000000E+00  0.00000000000E+00  0.71823140266E+03  0.71823140266E+03  0.00000000000E+00 0. -1.
         21   -1    0    0  503  504 -0.00000000000E+00 -0.00000000000E+00 -0.20163694303E+03  0.20163694303E+03  0.00000000000E+00 0.  1.
         -6    2    1    2    0  504  0.57662502597E+02  0.14307087325E+03 -0.10569080747E+03  0.25554516128E+03  0.17417963053E+03 0.  0.
        -24    2    3    3    0    0  0.23807913958E+02  0.35790839106E+02 -0.11014827978E+03  0.14286376105E+03  0.80184847392E+02 0.  0.
          6    2    1    2  502    0 -0.57662502597E+02 -0.14307087325E+03  0.62228526711E+03  0.66432318441E+03  0.17404626027E+03 0.  0.
         24    2    5    5    0    0  0.19499710272E+01 -0.88100379712E+02  0.19021903448E+03  0.22468842516E+03  0.80846323529E+02 0.  0.
          2    1    6    6  501    0 -0.16844858186E+02 -0.90308994175E+02  0.18236906057E+03  0.20420072950E+03  0.00000000000E+00 0. -1.
         -1    1    6    6    0  501  0.18794829213E+02  0.22086144626E+01  0.78499739191E+01  0.20487695662E+02  0.00000000000E+00 0.  1.
          5    1    5    5  502    0 -0.59612473624E+02 -0.54970493535E+02  0.43206623262E+03  0.43963475925E+03  0.47000000000E+01 0. -1.
         11    1    4    4    0    0 -0.57883943985E+01 -0.72777836326E+01  0.88870396028E+01  0.12862780307E+02  0.00000000000E+00 0. -1.
        -12    1    4    4    0    0  0.29596308357E+02  0.43068622738E+02 -0.11903531939E+03  0.13000098074E+03  0.00000000000E+00 0.  1.
         -5    1    3    3    0  504  0.33854588638E+02  0.10728003414E+03  0.44574723132E+01  0.11268140023E+03  0.47000000000E+01 0.  1.
<mgrwt>
<rscale>  2 0.23263957E+03</rscale>
<asrwt>0</asrwt>
<pdfrwt beam="1">  1       21 0.11049714E+00 0.23266453E+03</pdfrwt>
<pdfrwt beam="2">  1       21 0.31021069E-01 0.23266453E+03</pdfrwt>
<totfact> 0.62640636E+03</totfact>
</mgrwt>
</event>
<event>
12    1  0.2791583E-001  0.1765530E+03  0.7546771E-02  0.1172089E+00
         21   -1    0    0  502  503  0.00000000000E+00  0.00000000000E+00  0.11641268664E+03  0.11641268664E+03  0.00000000000E+00 0.  1.
         21   -1    0    0  503  504 -0.00000000000E+00 -0.00000000000E+00 -0.54185944538E+03  0.54185944538E+03  0.00000000000E+00 0.  1.
         -6    2    1    2    0  504  0.42154650464E+01 -0.40527750766E+01 -0.45019465903E+03  0.48357645793E+03  0.17645612630E+03 0.  0.
        -24    2    3    3    0    0  0.40408259205E+02 -0.52298868654E+02 -0.36861924462E+03  0.38201740057E+03  0.75426439394E+02 0.  0.
          6    2    1    2  502    0 -0.42154650464E+01  0.40527750766E+01  0.24747900290E+02  0.17469567409E+03  0.17283496419E+03 0.  0.
         24    2    5    5    0    0  0.27142618983E+02 -0.46334429175E+02  0.50356042616E+02  0.10988775220E+03  0.81584226199E+02 0.  0.
          2    1    6    6  501    0 -0.18944607499E+02 -0.35236926665E+02 -0.97153945809E+00  0.40018533744E+02  0.00000000000E+00 0. -1.
         -1    1    6    6    0  501  0.46087226482E+02 -0.11097502510E+02  0.51327582074E+02  0.69869218460E+02  0.00000000000E+00 0.  1.
          5    1    5    5  502    0 -0.31358084029E+02  0.50387204252E+02 -0.25608142326E+02  0.64807921889E+02  0.47000000000E+01 0. -1.
         13    1    4    4    0    0  0.11955733980E+02  0.19596363424E+02 -0.82228411063E+02  0.85372528488E+02  0.00000000000E+00 0. -1.
        -14    1    4    4    0    0  0.28452525224E+02 -0.71895232078E+02 -0.28639083356E+03  0.29664487209E+03  0.00000000000E+00 0.  1.
         -5    1    3    3    0  504 -0.36192794158E+02  0.48246093577E+02 -0.81575414410E+02  0.10155905735E+03  0.47000000000E+01 0.  1.
<mgrwt>
<rscale>  2 0.17564117E+03</rscale>
<asrwt>0</asrwt>
<pdfrwt beam="1">  1       21 0.17909644E-01 0.17655299E+03</pdfrwt>
<pdfrwt beam="2">  1       21 0.83362990E-01 0.17655299E+03</pdfrwt>
<totfact> 0.35804317E+04</totfact>
</mgrwt>
</event>
<event>
12    1  0.2791583E-001  0.2122146E+03  0.7546771E-02  0.1139976E+00
         21   -1    0    0  502  503  0.00000000000E+00  0.00000000000E+00  0.32323538336E+03  0.32323538336E+03  0.00000000000E+00 0.  1.
         21   -1    0    0  503  504 -0.00000000000E+00 -0.00000000000E+00 -0.17781372148E+03  0.17781372148E+03  0.00000000000E+00 0.  1.
         -6    2    1    2    0  504 -0.12108181099E+03 -0.15317404704E+02 -0.44507957793E+02  0.21683169785E+03  0.17360760077E+03 0.  0.
        -24    2    3    3    0    0 -0.14231692944E+03  0.16051948488E+02 -0.12022695227E+02  0.16670836137E+03  0.84471054787E+02 0.  0.
          6    2    1    2  502    0  0.12108181099E+03  0.15317404704E+02  0.18992961967E+03  0.28421740700E+03  0.17265817726E+03 0.  0.
         24    2    5    5    0    0  0.11338821698E+03  0.56540277976E+02  0.89351688557E+02  0.17514620596E+03  0.81478699237E+02 0.  0.
          2    1    6    6  501    0  0.74652929237E+02  0.61049654223E+02  0.24545914430E+02  0.99511919083E+02  0.00000000000E+00 0. -1.
         -1    1    6    6    0  501  0.38735287746E+02 -0.45093762464E+01  0.64805774127E+02  0.75634286875E+02  0.00000000000E+00 0.  1.
          5    1    5    5  502    0  0.76935940034E+01 -0.41222873272E+02  0.10057793112E+03  0.10907120104E+03  0.47000000000E+01 0. -1.
         13    1    4    4    0    0 -0.87269265902E+02 -0.32238375356E+02 -0.56653304691E+01  0.93205866693E+02  0.00000000000E+00 0. -1.
        -14    1    4    4    0    0 -0.55047663535E+02  0.48290323844E+02 -0.63573647581E+01  0.73502494681E+02  0.00000000000E+00 0.  1.
         -5    1    3    3    0  504  0.21235118451E+02 -0.31369353193E+02 -0.32485262566E+02  0.50123336474E+02  0.47000000000E+01 0.  1.
<mgrwt>
<rscale>  2 0.21202031E+03</rscale>
<asrwt>0</asrwt>
<pdfrwt beam="1">  1       21 0.49728520E-01 0.21221458E+03</pdfrwt>
<pdfrwt beam="2">  1       21 0.27355957E-01 0.21221458E+03</pdfrwt>
<totfact> 0.48648758E+04</totfact>
</mgrwt>
</event>
<event>
12    1  0.2791583E-001  0.1769876E+03  0.7546771E-02  0.1171109E+00
         21   -1    0    0  502  503  0.00000000000E+00  0.00000000000E+00  0.14140655829E+03  0.14140655829E+03  0.00000000000E+00 0.  1.
         21   -1    0    0  503  504 -0.00000000000E+00 -0.00000000000E+00 -0.43223828523E+03  0.43223828523E+03  0.00000000000E+00 0. -1.
         -6    2    1    2    0  504 -0.21412957308E+02 -0.39038092442E+02 -0.34623027699E+03  0.38818966525E+03  0.16980378117E+03 0.  0.
        -24    2    3    3    0    0 -0.58443749890E+02 -0.15061645586E+02 -0.32242564326E+03  0.33784187294E+03  0.80847452725E+02 0.  0.
          6    2    1    2  502    0  0.21412957308E+02  0.39038092442E+02  0.55398550048E+02  0.18545517827E+03  0.17129546520E+03 0.  0.
         24    2    5    5    0    0  0.27777036913E+02  0.57969811965E+02  0.95184921869E+02  0.14068960114E+03  0.81248579299E+02 0.  0.
          4    1    6    6  501    0 -0.18719896745E+02  0.32379517395E+02  0.75182100847E+02  0.83971518795E+02  0.00000000000E+00 0. -1.
         -3    1    6    6    0  501  0.46496933658E+02  0.25590294570E+02  0.20002821022E+02  0.56718082343E+02  0.00000000000E+00 0.  1.
          5    1    5    5  502    0 -0.63640796047E+01 -0.18931719523E+02 -0.39786371821E+02  0.44765577133E+02  0.47000000000E+01 0. -1.
         13    1    4    4    0    0  0.46624909467E+00 -0.27452990704E+02 -0.19486569591E+03  0.19679055752E+03  0.00000000000E+00 0. -1.
        -14    1    4    4    0    0 -0.58909998985E+02  0.12391345117E+02 -0.12755994736E+03  0.14105131543E+03  0.00000000000E+00 0.  1.
         -5    1    3    3    0  504  0.37030792582E+02 -0.23976446855E+02 -0.23804633729E+02  0.50347792305E+02  0.47000000000E+01 0.  1.
<mgrwt>
<rscale>  2 0.17662570E+03</rscale>
<asrwt>0</asrwt>
<pdfrwt beam="1">  1       21 0.21754855E-01 0.17698764E+03</pdfrwt>
<pdfrwt beam="2">  1       21 0.66498197E-01 0.17698764E+03</pdfrwt>
<totfact> 0.41210750E+04</totfact>
</mgrwt>
</event>
<event>
12    1  0.2791583E-001  0.1728152E+03  0.7546771E-02  0.1176076E+00
         21   -1    0    0  502  503  0.00000000000E+00  0.00000000000E+00  0.14428273589E+02  0.14428273589E+02  0.00000000000E+00 0. -1.
         21   -1    0    0  503  504 -0.00000000000E+00 -0.00000000000E+00 -0.21191247572E+04  0.21191247572E+04  0.00000000000E+00 0. -1.
         -6    2    1    2    0  504  0.58150942163E+01 -0.55511068805E+01 -0.12984551633E+04  0.13099049227E+04  0.17262811298E+03 0.  0.
        -24    2    3    3    0    0  0.36759798634E+02 -0.19096206579E+02 -0.12302026099E+04  0.12336058696E+04  0.81664143315E+02 0.  0.
          6    2    1    2  502    0 -0.58150942163E+01  0.55511068805E+01 -0.80624132036E+03  0.82364810811E+03  0.16824538395E+03 0.  0.
         24    2    5    5    0    0 -0.95190390748E+01  0.62136663746E+02 -0.61296330064E+03  0.62216826455E+03  0.86126444208E+02 0.  0.
          4    1    6    6  501    0  0.28426591453E+02 -0.62445234414E+00 -0.99125154486E+02  0.10312253534E+03  0.00000000000E+00 0. -1.
         -3    1    6    6    0  501 -0.37945630527E+02  0.62761116090E+02 -0.51383814616E+03  0.51904572921E+03  0.00000000000E+00 0.  1.
          5    1    5    5  502    0  0.37039448586E+01 -0.56585556865E+02 -0.19327801972E+03  0.20147984355E+03  0.47000000000E+01 0. -1.
         11    1    4    4    0    0  0.23713947877E+02  0.23479399154E+02 -0.22955504942E+03  0.23196800258E+03  0.00000000000E+00 0. -1.
        -12    1    4    4    0    0  0.13045850756E+02 -0.42575605733E+02 -0.10006475605E+04  0.10016378670E+04  0.00000000000E+00 0.  1.
         -5    1    3    3    0  504 -0.30944704418E+02  0.13545099699E+02 -0.68252553402E+02  0.76299053095E+02  0.47000000000E+01 0.  1.
<mgrwt>
<rscale>  2 0.17171019E+03</rscale>
<asrwt>0</asrwt>
<pdfrwt beam="1">  1       21 0.22197348E-02 0.17281521E+03</pdfrwt>
<pdfrwt beam="2">  1       21 0.32601913E+00 0.17281521E+03</pdfrwt>
<totfact> 0.25625750E+04</totfact>
</mgrwt>
</event>
<event>
12    1  0.2791583E-001  0.2144733E+03  0.7546771E-02  0.1138229E+00
         21   -1    0    0  502  503  0.00000000000E+00  0.00000000000E+00  0.30979830680E+03  0.30979830680E+03  0.00000000000E+00 0. -1.
         21   -1    0    0  503  504 -0.00000000000E+00 -0.00000000000E+00 -0.16048839465E+03  0.16048839465E+03  0.00000000000E+00 0. -1.
         -6    2    1    2    0  504 -0.10177094457E+03 -0.77550974652E+02  0.14059605902E+03  0.25644893224E+03  0.17212589639E+03 0.  0.
        -24    2    3    3    0    0 -0.13606862367E+03 -0.43750945224E+02  0.12195443214E+03  0.20459940926E+03  0.80989006630E+02 0.  0.
          6    2    1    2  502    0  0.10177094457E+03  0.77550974652E+02  0.87138531276E+01  0.21383776921E+03  0.17111160532E+03 0.  0.
         24    2    5    5    0    0  0.24141891036E+02  0.10084669484E+03  0.12796131221E+02  0.13254991325E+03  0.81565015574E+02 0.  0.
          2    1    6    6  501    0  0.44140869552E+02  0.70079895787E+02 -0.17868846975E+02  0.84728412298E+02  0.00000000000E+00 0. -1.
         -1    1    6    6    0  501 -0.19998978515E+02  0.30766799054E+02  0.30664978196E+02  0.47821500954E+02  0.00000000000E+00 0.  1.
          5    1    5    5  502    0  0.77629053537E+02 -0.23295720190E+02 -0.40822780933E+01  0.81287855960E+02  0.47000000000E+01 0. -1.
         13    1    4    4    0    0 -0.10433611687E+03 -0.65229165003E+02  0.10830403383E+03  0.16392264333E+03  0.00000000000E+00 0. -1.
        -14    1    4    4    0    0 -0.31732506800E+02  0.21478219779E+02  0.13650398304E+02  0.40676765930E+02  0.00000000000E+00 0.  1.
         -5    1    3    3    0  504  0.34297679097E+02 -0.33800029428E+02  0.18641626881E+02  0.51849522983E+02  0.47000000000E+01 0.  1.
<mgrwt>
<rscale>  2 0.21426973E+03</rscale>
<asrwt>0</asrwt>
<pdfrwt beam="1">  1       21 0.47661278E-01 0.21447332E+03</pdfrwt>
<pdfrwt beam="2">  1       21 0.24690522E-01 0.21447332E+03</pdfrwt>
<totfact> 0.64652410E+04</totfact>
</mgrwt>
</event>
<event>
12    1  0.2791583E-001  0.1986513E+03  0.7546771E-02  0.1150913E+00
         21   -1    0    0  502  503  0.00000000000E+00  0.00000000000E+00  0.26416496173E+03  0.26416496173E+03  0.00000000000E+00 0. -1.
         21   -1    0    0  503  504 -0.00000000000E+00 -0.00000000000E+00 -0.44366394771E+03  0.44366394771E+03  0.00000000000E+00 0. -1.
         -6    2    1    2    0  504  0.88869823861E+02 -0.36152927410E+02 -0.37805287060E+03  0.42706710049E+03  0.17394670333E+03 0.  0.
        -24    2    3    3    0    0  0.18194716150E+02 -0.58229266182E+02 -0.32757800312E+03  0.33733339540E+03  0.52581140949E+02 0.  0.
          6    2    1    2  502    0 -0.88869823861E+02  0.36152927410E+02  0.19855388462E+03  0.28076180895E+03  0.17377764101E+03 0.  0.
         24    2    5    5    0    0 -0.11444579367E+03  0.39103262388E+02  0.20792473199E+03  0.25296365274E+03  0.78300770240E+02 0.  0.
          2    1    6    6  501    0 -0.11795282791E+03  0.14070167027E+02  0.17253652562E+03  0.20947480012E+03  0.00000000000E+00 0. -1.
         -1    1    6    6    0  501  0.35070342456E+01  0.25033095361E+02  0.35388206369E+02  0.43488852625E+02  0.00000000000E+00 0.  1.
          5    1    5    5  502    0  0.25575969807E+02 -0.29503349777E+01 -0.93708473701E+01  0.27798156207E+02  0.47000000000E+01 0. -1.
         13    1    4    4    0    0  0.19500768946E+02 -0.30726008241E+02 -0.76114783196E+02  0.84367219895E+02  0.00000000000E+00 0. -1.
        -14    1    4    4    0    0 -0.13060527963E+01 -0.27503257941E+02 -0.25146321993E+03  0.25296617550E+03  0.00000000000E+00 0.  1.
         -5    1    3    3    0  504  0.70675107711E+02  0.22076338772E+02 -0.50474867476E+02  0.89733705096E+02  0.47000000000E+01 0.  1.
<mgrwt>
<rscale>  2 0.19861428E+03</rscale>
<asrwt>0</asrwt>
<pdfrwt beam="1">  1       21 0.40640764E-01 0.19865129E+03</pdfrwt>
<pdfrwt beam="2">  1       21 0.68255991E-01 0.19865129E+03</pdfrwt>
<totfact> 0.11378616E+04</totfact>
</mgrwt>
</event>
<event>
12    1  0.2791583E-001  0.2087219E+03  0.7546771E-02  0.1142702E+00
         21   -1    0    0  502  503  0.00000000000E+00  0.00000000000E+00  0.31896050174E+03  0.31896050174E+03  0.00000000000E+00 0. -1.
         21   -1    0    0  503  504 -0.00000000000E+00 -0.00000000000E+00 -0.14899674960E+03  0.14899674960E+03  0.00000000000E+00 0. -1.
         -6    2    1    2    0  504  0.40080340595E+02 -0.10913610054E+03  0.16280329909E+02  0.20875955626E+03  0.17262207578E+03 0.  0.
        -24    2    3    3    0    0  0.60517581142E+02 -0.12466351395E+03  0.47033811054E+02  0.16842783214E+03  0.83380968570E+02 0.  0.
          6    2    1    2  502    0 -0.40080340595E+02  0.10913610054E+03  0.15368342223E+03  0.25919769508E+03  0.17334280696E+03 0.  0.
         24    2    5    5    0    0  0.25550844513E+02  0.11155325077E+03  0.86443978306E+02  0.16508856751E+03  0.81760016647E+02 0.  0.
          2    1    6    6  501    0 -0.13804826149E+02  0.30528101007E+02 -0.81352170097E+01  0.34477817969E+02  0.00000000000E+00 0. -1.
         -1    1    6    6    0  501  0.39355670662E+02  0.81025149767E+02  0.94579195316E+02  0.13061074954E+03  0.00000000000E+00 0.  1.
          5    1    5    5  502    0 -0.65631185108E+02 -0.24171502361E+01  0.67239443924E+02  0.94109127576E+02  0.47000000000E+01 0. -1.
         11    1    4    4    0    0  0.99004879702E+01 -0.31307159458E+02 -0.23994604152E+02  0.40668156140E+02  0.00000000000E+00 0. -1.
        -12    1    4    4    0    0  0.50617093171E+02 -0.93356354489E+02  0.71028415206E+02  0.12775967600E+03  0.00000000000E+00 0.  1.
         -5    1    3    3    0  504 -0.20437240546E+02  0.15527413410E+02 -0.30753481146E+02  0.40331724125E+02  0.47000000000E+01 0.  1.
<mgrwt>
<rscale>  2 0.20857224E+03</rscale>
<asrwt>0</asrwt>
<pdfrwt beam="1">  1       21 0.49070846E-01 0.20872195E+03</pdfrwt>
<pdfrwt beam="2">  1       21 0.22922577E-01 0.20872195E+03</pdfrwt>
<totfact> 0.70269565E+04</totfact>
</mgrwt>
</event>
<event>
12    1  0.2791583E-001  0.2333378E+03  0.7546771E-02  0.1125202E+00
         21   -1    0    0  502  503  0.00000000000E+00  0.00000000000E+00  0.13768913485E+04  0.13768913485E+04  0.00000000000E+00 0.  1.
         21   -1    0    0  503  504 -0.00000000000E+00 -0.00000000000E+00 -0.41886040760E+02  0.41886040760E+02  0.00000000000E+00 0. -1.
         -6    2    1    2    0  504  0.72975632629E+01 -0.16520444300E+03  0.46460594365E+03  0.51764389019E+03  0.15732371647E+03 0.  0.
        -24    2    3    3    0    0 -0.11487713365E+02 -0.72000114212E+02  0.37309263301E+03  0.38559575674E+03  0.64575465996E+02 0.  0.
          6    2    1    2  502    0 -0.72975632629E+01  0.16520444300E+03  0.87039936414E+03  0.90113349911E+03  0.16462310807E+03 0.  0.
         24    2    5    5    0    0 -0.62237117171E+02  0.85076470104E+02  0.57795707902E+03  0.59293968550E+03  0.80197387294E+02 0.  0.
          4    1    6    6  501    0 -0.72709944357E+02  0.89753509739E+02  0.45440676236E+03  0.46885811734E+03  0.00000000000E+00 0. -1.
         -3    1    6    6    0  501  0.10472827186E+02 -0.46770396351E+01  0.12355031666E+03  0.12408156816E+03  0.00000000000E+00 0.  1.
          5    1    5    5  502    0  0.54939553908E+02  0.80127972901E+02  0.29244228512E+03  0.30819381361E+03  0.47000000000E+01 0. -1.
         13    1    4    4    0    0  0.10710996270E+02  0.74019219974E+01  0.82985580630E+02  0.84000717156E+02  0.00000000000E+00 0. -1.
        -14    1    4    4    0    0 -0.22198709635E+02 -0.79402036209E+02  0.29010705238E+03  0.30159503959E+03  0.00000000000E+00 0.  1.
         -5    1    3    3    0  504  0.18785276628E+02 -0.93204328793E+02  0.91513310641E+02  0.13204813345E+03  0.47000000000E+01 0.  1.
<mgrwt>
<rscale>  2 0.23205446E+03</rscale>
<asrwt>0</asrwt>
<pdfrwt beam="1">  1       21 0.21182940E+00 0.23333780E+03</pdfrwt>
<pdfrwt beam="2">  1       21 0.64440073E-02 0.23333780E+03</pdfrwt>
<totfact> 0.19130646E+04</totfact>
</mgrwt>
</event>
<event>
12    1  0.2791583E-001  0.1764550E+03  0.7546771E-02  0.1171467E+00
         21   -1    0    0  502  503  0.00000000000E+00  0.00000000000E+00  0.63896403517E+03  0.63896403517E+03  0.00000000000E+00 0.  1.
         21   -1    0    0  503  504 -0.00000000000E+00 -0.00000000000E+00 -0.35203814053E+03  0.35203814053E+03  0.00000000000E+00 0.  1.
         -6    2    1    2    0  504  0.27684308337E+02  0.54697758219E+01 -0.31666823180E+03  0.36214429269E+03  0.17341678211E+03 0.  0.
        -24    2    3    3    0    0 -0.29215429775E+02 -0.26259283212E+02 -0.26493735767E+03  0.27882270651E+03  0.77506173213E+02 0.  0.
          6    2    1    2  502    0 -0.27684308337E+02 -0.54697758219E+01  0.60359412644E+03  0.62885788301E+03  0.17418389182E+03 0.  0.
         24    2    5    5    0    0 -0.63139620656E+02  0.41039483775E+02  0.29877056449E+03  0.31843931990E+03  0.80429468036E+02 0.  0.
          2    1    6    6  501    0 -0.20858072079E+02 -0.15132221277E+02  0.25438438590E+02  0.36209908168E+02  0.00000000000E+00 0. -1.
         -1    1    6    6    0  501 -0.42281548577E+02  0.56171705052E+02  0.27333212590E+03  0.28222941173E+03  0.00000000000E+00 0.  1.
          5    1    5    5  502    0  0.35455312319E+02 -0.46509259597E+02  0.30482356196E+03  0.31041856311E+03  0.47000000000E+01 0. -1.
         13    1    4    4    0    0 -0.66035978339E+01  0.68958073847E+01  0.12481083444E+01  0.96289894733E+01  0.00000000000E+00 0. -1.
        -14    1    4    4    0    0 -0.22611831942E+02 -0.33155090596E+02 -0.26618546601E+03  0.26919371704E+03  0.00000000000E+00 0.  1.
         -5    1    3    3    0  504  0.56899738112E+02  0.31729059033E+02 -0.51730874133E+02  0.83321586177E+02  0.47000000000E+01 0.  1.
<mgrwt>
<rscale>  2 0.17626540E+03</rscale>
<asrwt>0</asrwt>
<pdfrwt beam="1">  1       21 0.98302159E-01 0.17645500E+03</pdfrwt>
<pdfrwt beam="2">  1       21 0.54159714E-01 0.17645500E+03</pdfrwt>
<totfact> 0.27948469E+03</totfact>
</mgrwt>
</event>
<event>
12    1  0.2791583E-001  0.2076690E+03  0.7546771E-02  0.1143762E+00
         21   -1    0    0  502  503  0.00000000000E+00  0.00000000000E+00  0.92659136179E+02  0.92659136179E+02  0.00000000000E+00 0. -1.
         21   -1    0    0  503  504 -0.00000000000E+00 -0.00000000000E+00 -0.66554076222E+03  0.66554076222E+03  0.00000000000E+00 0.  1.
         -6    2    1    2    0  504 -0.65769886334E+02  0.94594530455E+02 -0.49544086673E+03  0.53656173950E+03  0.17077190847E+03 0.  0.
        -24    2    3    3    0    0 -0.51522132572E+02  0.39189559596E+02 -0.12476104090E+03  0.16146397549E+03  0.79466636577E+02 0.  0.
          6    2    1    2  502    0  0.65769886334E+02 -0.94594530455E+02 -0.77440759303E+02  0.22163815890E+03  0.17277904716E+03 0.  0.
         24    2    5    5    0    0  0.13583208003E+02  0.14114414681E+02 -0.71875569863E+01  0.82000461324E+02  0.79301289021E+02 0.  0.
          2    1    6    6  501    0  0.22961208239E+01  0.45092387809E+02  0.77382453724E+01  0.45809126281E+02  0.00000000000E+00 0. -1.
         -1    1    6    6    0  501  0.11287087180E+02 -0.30977973128E+02 -0.14925802359E+02  0.36191335043E+02  0.00000000000E+00 0.  1.
          5    1    5    5  502    0  0.52186678331E+02 -0.10870894514E+03 -0.70253202317E+02  0.13963769757E+03  0.47000000000E+01 0. -1.
         11    1    4    4    0    0 -0.31829077993E+01 -0.10676260319E+02  0.65461595021E+01  0.12921518513E+02  0.00000000000E+00 0. -1.
        -12    1    4    4    0    0 -0.48339224773E+02  0.49865819916E+02 -0.13130720040E+03  0.14854245698E+03  0.00000000000E+00 0.  1.
         -5    1    3    3    0  504 -0.14247753762E+02  0.55404970858E+02 -0.37067982583E+03  0.37509776400E+03  0.47000000000E+01 0.  1.
<mgrwt>
<rscale>  2 0.20725098E+03</rscale>
<asrwt>0</asrwt>
<pdfrwt beam="1">  1       21 0.14255252E-01 0.20766897E+03</pdfrwt>
<pdfrwt beam="2">  1       21 0.10239088E+00 0.20766897E+03</pdfrwt>
<totfact> 0.33113310E+04</totfact>
</mgrwt>
</event>
<event>
12    1  0.2791583E-001  0.1808933E+03  0.7546771E-02  0.1166957E+00
         21   -1    0    0  502  503  0.00000000000E+00  0.00000000000E+00  0.10642460905E+03  0.10642460905E+03  0.00000000000E+00 0. -1.
         21   -1    0    0  503  504 -0.00000000000E+00 -0.00000000000E+00 -0.39069713613E+03  0.39069713613E+03  0.00000000000E+00 0. -1.
         -6    2    1    2    0  504 -0.43540520749E+02  0.28258635397E+02 -0.25695632449E+03  0.31424343360E+03  0.17328605093E+03 0.  0.
        -24    2    3    3    0    0 -0.64588331229E+02 -0.69506437404E+01 -0.25263516073E+03  0.27272878415E+03  0.79602143739E+02 0.  0.
          6    2    1    2  502    0  0.43540520749E+02 -0.28258635397E+02 -0.27316202596E+02  0.18287831158E+03  0.17321655377E+03 0.  0.
         24    2    5    5    0    0  0.80430953719E+02 -0.31413667767E+02 -0.61166980273E+02  0.13249157301E+03  0.79728668644E+02 0.  0.
          4    1    6    6  501    0  0.89618074948E+02 -0.42105622331E+02 -0.39419206602E+02  0.10657465289E+03  0.00000000000E+00 0. -1.
         -3    1    6    6    0  501 -0.91871212283E+01  0.10691954564E+02 -0.21747773671E+02  0.25916920120E+02  0.00000000000E+00 0.  1.
          5    1    5    5  502    0 -0.36890432971E+02  0.31550323692E+01  0.33850777678E+02  0.50386738567E+02  0.47000000000E+01 0. -1.
         11    1    4    4    0    0 -0.80436780728E+02  0.33662343624E+00 -0.23285040386E+03  0.24635238904E+03  0.00000000000E+00 0. -1.
        -12    1    4    4    0    0  0.15848449499E+02 -0.72872671767E+01 -0.19784756865E+02  0.26376395103E+02  0.00000000000E+00 0.  1.
         -5    1    3    3    0  504  0.21047810480E+02  0.35209279138E+02 -0.43211637616E+01  0.41514649458E+02  0.47000000000E+01 0.  1.
<mgrwt>
<rscale>  2 0.18087665E+03</rscale>
<asrwt>0</asrwt>
<pdfrwt beam="1">  1       21 0.16373017E-01 0.18089329E+03</pdfrwt>
<pdfrwt beam="2">  1       21 0.60107251E-01 0.18089329E+03</pdfrwt>
<totfact> 0.86691014E+04</totfact>
</mgrwt>
</event>
<event>
12    1  0.2791583E-001  0.2628421E+03  0.7546771E-02  0.1105476E+00
         21   -1    0    0  502  503  0.00000000000E+00  0.00000000000E+00  0.22638708643E+03  0.22638708643E+03  0.00000000000E+00 0. -1.
         21   -1    0    0  503  504 -0.00000000000E+00 -0.00000000000E+00 -0.30581949465E+03  0.30581949465E+03  0.00000000000E+00 0. -1.
         -6    2    1    2    0  504  0.17476189688E+03  0.92289256460E+02 -0.25445600989E+02  0.26387736527E+03  0.17298773897E+03 0.  0.
        -24    2    3    3    0    0  0.12078402607E+03 -0.70897292397E+01 -0.37018246741E+02  0.15009771214E+03  0.80746067307E+02 0.  0.
          6    2    1    2  502    0 -0.17476189688E+03 -0.92289256460E+02 -0.53986807233E+02  0.26832921580E+03  0.17328290521E+03 0.  0.
         24    2    5    5    0    0 -0.17510304344E+03 -0.92793536723E+02 -0.88743824938E+02  0.23325057616E+03  0.85197702634E+02 0.  0.
          4    1    6    6  501    0 -0.13484909602E+03 -0.10611453528E+03 -0.58986234747E+02  0.18144957752E+03  0.00000000000E+00 0. -1.
         -3    1    6    6    0  501 -0.40253947419E+02  0.13320998555E+02 -0.29757590191E+02  0.51800998632E+02  0.00000000000E+00 0.  1.
          5    1    5    5  502    0  0.34114655936E+00  0.50428026224E+00  0.34757017705E+02  0.35078639644E+02  0.47000000000E+01 0. -1.
         11    1    4    4    0    0  0.68279878671E+02  0.22703372536E+02  0.11218644041E+02  0.72824741194E+02  0.00000000000E+00 0. -1.
        -12    1    4    4    0    0  0.52504147394E+02 -0.29793101775E+02 -0.48236890782E+02  0.77272970949E+02  0.00000000000E+00 0.  1.
         -5    1    3    3    0  504  0.53977870813E+02  0.99378985700E+02  0.11572645752E+02  0.11377965313E+03  0.47000000000E+01 0.  1.
<mgrwt>
<rscale>  2 0.26279351E+03</rscale>
<asrwt>0</asrwt>
<pdfrwt beam="1">  1       21 0.34828783E-01 0.26284214E+03</pdfrwt>
<pdfrwt beam="2">  1       21 0.47049153E-01 0.26284214E+03</pdfrwt>
<totfact> 0.33225523E+04</totfact>
</mgrwt>
</event>
<event>
12    1  0.2791583E-001  0.2557512E+03  0.7546771E-02  0.1109767E+00
         21   -1    0    0  502  503  0.00000000000E+00  0.00000000000E+00  0.13166063292E+04  0.13166063292E+04  0.00000000000E+00 0.  1.
         21   -1    0    0  503  504 -0.00000000000E+00 -0.00000000000E+00 -0.52833364619E+02  0.52833364619E+02  0.00000000000E+00 0. -1.
         -6    2    1    2    0  504 -0.10363910421E+03  0.15718235058E+03  0.80098085517E+03  0.84082042986E+03  0.17309335532E+03 0.  0.
        -24    2    3    3    0    0 -0.10858563446E+03  0.16520622738E+03  0.55358571215E+03  0.59320117060E+03  0.79665240449E+02 0.  0.
          6    2    1    2  502    0  0.10363910421E+03 -0.15718235058E+03  0.46279210937E+03  0.52861926392E+03  0.17266856819E+03 0.  0.
         24    2    5    5    0    0  0.80352556986E+02 -0.12612025208E+03  0.45919150165E+03  0.48934877092E+03  0.79009702022E+02 0.  0.
          4    1    6    6  501    0  0.43816819524E+02 -0.12306874241E+03  0.32592123503E+03  0.35112744193E+03  0.00000000000E+00 0. -1.
         -3    1    6    6    0  501  0.36535737462E+02 -0.30515096703E+01  0.13327026662E+03  0.13822132899E+03  0.00000000000E+00 0.  1.
          5    1    5    5  502    0  0.23286547224E+02 -0.31062098502E+02  0.36006077191E+01  0.39270493006E+02  0.47000000000E+01 0. -1.
         13    1    4    4    0    0 -0.33792380984E+02  0.37058205171E+02  0.62190164856E+02  0.79892754289E+02  0.00000000000E+00 0. -1.
        -14    1    4    4    0    0 -0.74793253475E+02  0.12814802221E+03  0.49139554729E+03  0.51330841631E+03  0.00000000000E+00 0.  1.
         -5    1    3    3    0  504  0.49465302496E+01 -0.80238767994E+01  0.24739514302E+03  0.24761925925E+03  0.47000000000E+01 0.  1.
<mgrwt>
<rscale>  2 0.25567932E+03</rscale>
<asrwt>0</asrwt>
<pdfrwt beam="1">  1       21 0.20255479E+00 0.25575118E+03</pdfrwt>
<pdfrwt beam="2">  1       21 0.81282110E-02 0.25575118E+03</pdfrwt>
<totfact> 0.14428440E+04</totfact>
</mgrwt>
</event>
<event>
12    1  0.2791583E-001  0.2088635E+03  0.7546771E-02  0.1142784E+00
         21   -1    0    0  502  503  0.00000000000E+00  0.00000000000E+00  0.38973281519E+02  0.38973281519E+02  0.00000000000E+00 0. -1.
         21   -1    0    0  503  504 -0.00000000000E+00 -0.00000000000E+00 -0.12023401990E+04  0.12023401990E+04  0.00000000000E+00 0. -1.
         -6    2    1    2    0  504  0.77049867466E+02  0.88587046096E+02 -0.75486480588E+03  0.78322718115E+03  0.17274141172E+03 0.  0.
        -24    2    3    3    0    0  0.10742759470E+03  0.61974217454E+02 -0.69754337640E+03  0.71294997832E+03  0.79683234726E+02 0.  0.
          6    2    1    2  502    0 -0.77049867466E+02 -0.88587046096E+02 -0.40850211156E+03  0.45808629933E+03  0.17083540520E+03 0.  0.
         24    2    5    5    0    0  0.29132459253E+01 -0.72678693731E+02 -0.31723664600E+03  0.33561732211E+03  0.81909815087E+02 0.  0.
          4    1    6    6  501    0 -0.35223065975E+02 -0.26768851539E+02 -0.84875010846E+02  0.95713130006E+02  0.00000000000E+00 0. -1.
         -3    1    6    6    0  501  0.38136311901E+02 -0.45909842192E+02 -0.23236163516E+03  0.23990419210E+03  0.00000000000E+00 0.  1.
          5    1    5    5  502    0 -0.79963113391E+02 -0.15908352365E+02 -0.91265465561E+02  0.12246897722E+03  0.47000000000E+01 0. -1.
         13    1    4    4    0    0  0.10081200460E+03  0.31744701940E+02 -0.39736900764E+03  0.41118476942E+03  0.00000000000E+00 0. -1.
        -14    1    4    4    0    0  0.66155900968E+01  0.30229515514E+02 -0.30017436875E+03  0.30176520889E+03  0.00000000000E+00 0.  1.
         -5    1    3    3    0  504 -0.30377727230E+02  0.26612828642E+02 -0.57321429485E+02  0.70277202834E+02  0.47000000000E+01 0.  1.
<mgrwt>
<rscale>  2 0.20846894E+03</rscale>
<asrwt>0</asrwt>
<pdfrwt beam="1">  1       21 0.59958889E-02 0.20886345E+03</pdfrwt>
<pdfrwt beam="2">  1       21 0.18497543E+00 0.20886345E+03</pdfrwt>
<totfact> 0.32891353E+04</totfact>
</mgrwt>
</event>
<event>
12    1  0.2791583E-001  0.2088089E+03  0.7546771E-02  0.1142535E+00
         21   -1    0    0  502  503  0.00000000000E+00  0.00000000000E+00  0.16141179698E+03  0.16141179698E+03  0.00000000000E+00 0. -1.
         21   -1    0    0  503  504 -0.00000000000E+00 -0.00000000000E+00 -0.30067863751E+03  0.30067863751E+03  0.00000000000E+00 0. -1.
         -6    2    1    2    0  504 -0.11397457534E+03 -0.30868091108E+02 -0.14344407245E+03  0.25323976945E+03  0.17207886576E+03 0.  0.
        -24    2    3    3    0    0 -0.71981044992E+02 -0.10849813408E+02 -0.16787189337E+03  0.20048565617E+03  0.81942275146E+02 0.  0.
          6    2    1    2  502    0  0.11397457534E+03  0.30868091108E+02  0.41772319172E+01  0.20885066504E+03  0.17221529593E+03 0.  0.
         24    2    5    5    0    0  0.10770919062E+02  0.45135001453E+02  0.36169620188E+02  0.99762891637E+02  0.80568058619E+02 0.  0.
          2    1    6    6  501    0  0.38232203081E+02  0.39755078867E+02  0.44165691979E+02  0.70659578233E+02  0.00000000000E+00 0. -1.
         -1    1    6    6    0  501 -0.27461284019E+02  0.53799225863E+01 -0.79960717914E+01  0.29103313404E+02  0.00000000000E+00 0.  1.
          5    1    5    5  502    0  0.10320365628E+03 -0.14266910345E+02 -0.31992388271E+02  0.10908777341E+03  0.47000000000E+01 0. -1.
         11    1    4    4    0    0 -0.25678879217E+02  0.35553706038E+02 -0.73224686415E+02  0.85354118538E+02  0.00000000000E+00 0. -1.
        -12    1    4    4    0    0 -0.46302165776E+02 -0.46403519446E+02 -0.94647206960E+02  0.11513153763E+03  0.00000000000E+00 0.  1.
         -5    1    3    3    0  504 -0.41993530347E+02 -0.20018277700E+02  0.24427820925E+02  0.52754113282E+02  0.47000000000E+01 0.  1.
<mgrwt>
<rscale>  2 0.20878075E+03</rscale>
<asrwt>0</asrwt>
<pdfrwt beam="1">  1       21 0.24832585E-01 0.20880889E+03</pdfrwt>
<pdfrwt beam="2">  1       21 0.46258251E-01 0.20880889E+03</pdfrwt>
<totfact> 0.68196415E+04</totfact>
</mgrwt>
</event>
<event>
12    1  0.2791583E-001  0.1969452E+03  0.7546771E-02  0.1152438E+00
         21   -1    0    0  502  503  0.00000000000E+00  0.00000000000E+00  0.72864445752E+03  0.72864445752E+03  0.00000000000E+00 0.  1.
         21   -1    0    0  503  504 -0.00000000000E+00 -0.00000000000E+00 -0.58076238885E+02  0.58076238885E+02  0.00000000000E+00 0.  1.
         -6    2    1    2    0  504 -0.90046070284E+02  0.21292127374E+02  0.44994134201E+03  0.49097819624E+03  0.17335145941E+03 0.  0.
        -24    2    3    3    0    0 -0.44754320180E+02 -0.69613018933E+01  0.41937061817E+03  0.42928331762E+03  0.79756143975E+02 0.  0.
          6    2    1    2  502    0  0.90046070284E+02 -0.21292127374E+02  0.22062687663E+03  0.29574250016E+03  0.17385556721E+03 0.  0.
         24    2    5    5    0    0  0.10063494316E+03 -0.69762218195E+02  0.15718992427E+03  0.21507149634E+03  0.80950091857E+02 0.  0.
          2    1    6    6  501    0  0.76510807800E+02 -0.22846397059E+02  0.46372610163E+02  0.92337860827E+02  0.00000000000E+00 0. -1.
         -1    1    6    6    0  501  0.24124135365E+02 -0.46915821136E+02  0.11081731410E+03  0.12273363551E+03  0.00000000000E+00 0.  1.
          5    1    5    5  502    0 -0.10588872880E+02  0.48470090821E+02  0.63436952366E+02  0.80671003828E+02  0.47000000000E+01 0. -1.
         11    1    4    4    0    0 -0.23556306754E+02 -0.24338707351E+02  0.60250933653E+02  0.69119080358E+02  0.00000000000E+00 0. -1.
        -12    1    4    4    0    0 -0.21198013425E+02  0.17377405457E+02  0.35911968452E+03  0.36016423726E+03  0.00000000000E+00 0.  1.
         -5    1    3    3    0  504 -0.45291750105E+02  0.28253429267E+02  0.30570723835E+02  0.61694878626E+02  0.47000000000E+01 0.  1.
<mgrwt>
<rscale>  2 0.19683388E+03</rscale>
<asrwt>0</asrwt>
<pdfrwt beam="1">  1       21 0.11209914E+00 0.19694519E+03</pdfrwt>
<pdfrwt beam="2">  1       21 0.89348065E-02 0.19694519E+03</pdfrwt>
<totfact> 0.61590370E+04</totfact>
</mgrwt>
</event>
<event>
12    1  0.2791583E-001  0.2407059E+03  0.7546771E-02  0.1119335E+00
         21   -1    0    0  502  503  0.00000000000E+00  0.00000000000E+00  0.70084016590E+02  0.70084016590E+02  0.00000000000E+00 0. -1.
         21   -1    0    0  503  504 -0.00000000000E+00 -0.00000000000E+00 -0.10367177002E+04  0.10367177002E+04  0.00000000000E+00 0. -1.
         -6    2    1    2    0  504 -0.12707863816E+03 -0.10991332070E+03 -0.73247105392E+03  0.77098709973E+03  0.17227113739E+03 0.  0.
        -24    2    3    3    0    0 -0.39549634463E+02  0.18724729094E+01 -0.16741417657E+03  0.18834762734E+03  0.76678826735E+02 0.  0.
          6    2    1    2  502    0  0.12707863816E+03  0.10991332070E+03 -0.23416262965E+03  0.33581461702E+03  0.17236415386E+03 0.  0.
         24    2    5    5    0    0  0.14788318641E+03  0.56549740259E+02 -0.20632759885E+03  0.27196025237E+03  0.79523524057E+02 0.  0.
          2    1    6    6  501    0  0.15204051494E+03  0.37001491152E+02 -0.17455338052E+03  0.23442335887E+03  0.00000000000E+00 0. -1.
         -1    1    6    6    0  501 -0.41573285342E+01  0.19548249107E+02 -0.31774218327E+02  0.37536893504E+02  0.00000000000E+00 0.  1.
          5    1    5    5  502    0 -0.20804548246E+02  0.53363580438E+02 -0.27835030807E+02  0.63854364650E+02  0.47000000000E+01 0. -1.
         11    1    4    4    0    0 -0.48808642924E+02  0.87679288237E+01 -0.16950960194E+03  0.17661445397E+03  0.00000000000E+00 0. -1.
        -12    1    4    4    0    0  0.92590084606E+01 -0.68954559143E+01  0.20954253760E+01  0.11733173375E+02  0.00000000000E+00 0.  1.
         -5    1    3    3    0  504 -0.87529003701E+02 -0.11178579361E+03 -0.56505687736E+03  0.58263947239E+03  0.47000000000E+01 0.  1.
<mgrwt>
<rscale>  2 0.24068923E+03</rscale>
<asrwt>0</asrwt>
<pdfrwt beam="1">  1       21 0.10782157E-01 0.24070588E+03</pdfrwt>
<pdfrwt beam="2">  1       21 0.15949503E+00 0.24070588E+03</pdfrwt>
<totfact> 0.17471114E+04</totfact>
</mgrwt>
</event>
<event>
12    1  0.2791583E-001  0.1919012E+03  0.7546771E-02  0.1156995E+00
         21   -1    0    0  502  503  0.00000000000E+00  0.00000000000E+00  0.41268383685E+02  0.41268383685E+02  0.00000000000E+00 0. -1.
         21   -1    0    0  503  504 -0.00000000000E+00 -0.00000000000E+00 -0.91453195500E+03  0.91453195500E+03  0.00000000000E+00 0. -1.
         -6    2    1    2    0  504  0.78748567884E+02 -0.20993551920E+02 -0.35551420863E+03  0.40400054113E+03  0.17373548438E+03 0.  0.
        -24    2    3    3    0    0  0.91670940179E+02  0.35763558408E+02 -0.28307038633E+03  0.31094918613E+03  0.82933463423E+02 0.  0.
          6    2    1    2  502    0 -0.78748567884E+02  0.20993551920E+02 -0.51774936268E+03  0.55179979755E+03  0.17255882431E+03 0.  0.
         24    2    5    5    0    0 -0.38385287631E+02  0.76303771210E+02 -0.26576609009E+03  0.29063687059E+03  0.80885598820E+02 0.  0.
          2    1    6    6  501    0 -0.35556781554E+02  0.47745810800E+01 -0.15236391468E+03  0.15653064823E+03  0.00000000000E+00 0. -1.
         -1    1    6    6    0  501 -0.28285060771E+01  0.71529190130E+02 -0.11340217541E+03  0.13410622236E+03  0.00000000000E+00 0.  1.
          5    1    5    5  502    0 -0.40363280252E+02 -0.55310219290E+02 -0.25198327259E+03  0.26116292696E+03  0.47000000000E+01 0. -1.
         13    1    4    4    0    0  0.48700880217E+02  0.46248455102E+02 -0.86760688045E+02  0.10971833176E+03  0.00000000000E+00 0. -1.
        -14    1    4    4    0    0  0.42970059962E+02 -0.10484896694E+02 -0.19630969829E+03  0.20123085438E+03  0.00000000000E+00 0.  1.
         -5    1    3    3    0  504 -0.12922372295E+02 -0.56757110328E+02 -0.72443822296E+02  0.93051355000E+02  0.47000000000E+01 0.  1.
<mgrwt>
<rscale>  2 0.19163453E+03</rscale>
<asrwt>0</asrwt>
<pdfrwt beam="1">  1       21 0.63489823E-02 0.19190124E+03</pdfrwt>
<pdfrwt beam="2">  1       21 0.14069722E+00 0.19190124E+03</pdfrwt>
<totfact> 0.63246976E+04</totfact>
</mgrwt>
</event>
<event>
12    1  0.2791583E-001  0.1893411E+03  0.7546771E-02  0.1159225E+00
         21   -1    0    0  502  503  0.00000000000E+00  0.00000000000E+00  0.98098682117E+03  0.98098682117E+03  0.00000000000E+00 0. -1.
         21   -1    0    0  503  504 -0.00000000000E+00 -0.00000000000E+00 -0.37027225703E+02  0.37027225703E+02  0.00000000000E+00 0. -1.
         -6    2    1    2    0  504  0.52394523326E+02 -0.54315421177E+02  0.40674872134E+03  0.44865863020E+03  0.17365106703E+03 0.  0.
        -24    2    3    3    0    0 -0.34242695652E+02 -0.50510779234E+02  0.19428610320E+03  0.21913099108E+03  0.80916007858E+02 0.  0.
          6    2    1    2  502    0 -0.52394523326E+02  0.54315421177E+02  0.53721087413E+03  0.56935541668E+03  0.17284303912E+03 0.  0.
         24    2    5    5    0    0  0.73965787593E+01 -0.13836023158E+02  0.17974552117E+03  0.20054223386E+03  0.87536222610E+02 0.  0.
          2    1    6    6  501    0  0.30297796014E+02 -0.41427821998E+02  0.12468159754E+03  0.13483219810E+03  0.00000000000E+00 0. -1.
         -1    1    6    6    0  501 -0.22901217255E+02  0.27591798840E+02  0.55063923630E+02  0.65710035767E+02  0.00000000000E+00 0.  1.
          5    1    5    5  502    0 -0.59791102086E+02  0.68151444335E+02  0.35746535296E+03  0.36881318282E+03  0.47000000000E+01 0. -1.
         11    1    4    4    0    0 -0.33470300523E+02 -0.32814747422E+02  0.34089930317E+02  0.57958537029E+02  0.00000000000E+00 0. -1.
        -12    1    4    4    0    0 -0.77239512880E+00 -0.17696031812E+02  0.16019617289E+03  0.16117245405E+03  0.00000000000E+00 0.  1.
         -5    1    3    3    0  504  0.86637218978E+02 -0.38046419425E+01  0.21246261814E+03  0.22952763912E+03  0.47000000000E+01 0.  1.
<mgrwt>
<rscale>  2 0.18915561E+03</rscale>
<asrwt>0</asrwt>
<pdfrwt beam="1">  1       21 0.15092103E+00 0.18934108E+03</pdfrwt>
<pdfrwt beam="2">  1       21 0.56964970E-02 0.18934108E+03</pdfrwt>
<totfact> 0.63486553E+04</totfact>
</mgrwt>
</event>
<event>
12    1  0.2791583E-001  0.1980972E+03  0.7546771E-02  0.1151531E+00
         21   -1    0    0  502  503  0.00000000000E+00  0.00000000000E+00  0.46004306132E+02  0.46004306132E+02  0.00000000000E+00 0.  1.
         21   -1    0    0  503  504 -0.00000000000E+00 -0.00000000000E+00 -0.14154850864E+04  0.14154850864E+04  0.00000000000E+00 0.  1.
         -6    2    1    2    0  504  0.12466607247E+02  0.95405790113E+02 -0.11476843964E+04  0.11646552962E+04  0.17316120882E+03 0.  0.
        -24    2    3    3    0    0  0.11667946283E+02  0.43102541841E+02 -0.26124629419E+03  0.27666269116E+03  0.79364024379E+02 0.  0.
          6    2    1    2  502    0 -0.12466607247E+02 -0.95405790113E+02 -0.22179638393E+03  0.29683409635E+03  0.17221836066E+03 0.  0.
         24    2    5    5    0    0  0.72174141555E+01 -0.84724035852E+02 -0.54375397777E+02  0.12785647305E+03  0.78487836632E+02 0.  0.
          4    1    6    6  501    0 -0.80853314729E+01 -0.78881971469E+02 -0.69589495272E+02  0.10550088085E+03  0.00000000000E+00 0. -1.
         -3    1    6    6    0  501  0.15302745628E+02 -0.58420643831E+01  0.15214097495E+02  0.22355592200E+02  0.00000000000E+00 0.  1.
          5    1    5    5  502    0 -0.19684021403E+02 -0.10681754260E+02 -0.16742098615E+03  0.16897762330E+03  0.47000000000E+01 0. -1.
         11    1    4    4    0    0  0.42046263378E+02  0.30513575518E+02 -0.10693718051E+03  0.11888871742E+03  0.00000000000E+00 0. -1.
        -12    1    4    4    0    0 -0.30378317095E+02  0.12588966323E+02 -0.15430911369E+03  0.15777397374E+03  0.00000000000E+00 0.  1.
         -5    1    3    3    0  504  0.79866096465E+00  0.52303248271E+02 -0.88643810218E+03  0.88799260506E+03  0.47000000000E+01 0.  1.
<mgrwt>
<rscale>  2 0.19789093E+03</rscale>
<asrwt>0</asrwt>
<pdfrwt beam="1">  1       21 0.70775862E-02 0.19809716E+03</pdfrwt>
<pdfrwt beam="2">  1       21 0.21776692E+00 0.19809716E+03</pdfrwt>
<totfact> 0.15340355E+04</totfact>
</mgrwt>
</event>
<event>
12    1  0.2791583E-001  0.2386622E+03  0.7546771E-02  0.1121425E+00
         21   -1    0    0  502  503  0.00000000000E+00  0.00000000000E+00  0.10174188472E+04  0.10174188472E+04  0.00000000000E+00 0. -1.
         21   -1    0    0  503  504 -0.00000000000E+00 -0.00000000000E+00 -0.94665837635E+02  0.94665837635E+02  0.00000000000E+00 0. -1.
         -6    2    1    2    0  504 -0.15650855987E+03 -0.23271181842E+02  0.98843503800E+02  0.25430468287E+03  0.17281306742E+03 0.  0.
        -24    2    3    3    0    0 -0.12785030220E+03 -0.89543995956E+01  0.80913886098E+00  0.15106180082E+03  0.79957062953E+02 0.  0.
          6    2    1    2  502    0  0.15650855987E+03  0.23271181842E+02  0.82390950580E+03  0.85778000199E+03  0.17867059315E+03 0.  0.
         24    2    5    5    0    0  0.79842007428E+02 -0.11564758852E+02  0.21250530630E+03  0.24058595779E+03  0.78832785600E+02 0.  0.
          2    1    6    6  501    0  0.30705390613E+02  0.33764649516E+02  0.95026966308E+02  0.10541820002E+03  0.00000000000E+00 0. -1.
         -1    1    6    6    0  501  0.49136616815E+02 -0.45329408368E+02  0.11747833999E+03  0.13516775777E+03  0.00000000000E+00 0.  1.
          5    1    5    5  502    0  0.76666552441E+02  0.34835940695E+02  0.61140419950E+03  0.61719404420E+03  0.47000000000E+01 0. -1.
         11    1    4    4    0    0 -0.13028189484E+03  0.11009529338E+02 -0.19576748704E+01  0.13076090528E+03  0.00000000000E+00 0. -1.
        -12    1    4    4    0    0  0.24315926427E+01 -0.19963928934E+02  0.27668137314E+01  0.20300895534E+02  0.00000000000E+00 0.  1.
         -5    1    3    3    0  504 -0.28658257671E+02 -0.14316782247E+02  0.98034364939E+02  0.10324288206E+03  0.47000000000E+01 0.  1.
<mgrwt>
<rscale>  2 0.23756646E+03</rscale>
<asrwt>0</asrwt>
<pdfrwt beam="1">  1       21 0.15652597E+00 0.23866223E+03</pdfrwt>
<pdfrwt beam="2">  1       21 0.14563976E-01 0.23866223E+03</pdfrwt>
<totfact> 0.10699200E+04</totfact>
</mgrwt>
</event>
<event>
12    1  0.2791583E-001  0.2137725E+03  0.7546771E-02  0.1139403E+00
         21   -1    0    0  502  503  0.00000000000E+00  0.00000000000E+00  0.25546901061E+03  0.25546901061E+03  0.00000000000E+00 0. -1.
         21   -1    0    0  503  504 -0.00000000000E+00 -0.00000000000E+00 -0.90409166200E+03  0.90409166200E+03  0.00000000000E+00 0. -1.
         -6    2    1    2    0  504 -0.14165072090E+02  0.12510917057E+03 -0.84537638379E+03  0.87198618923E+03  0.17275916799E+03 0.  0.
        -24    2    3    3    0    0  0.33878700900E+02  0.18165826862E+02 -0.48760342864E+03  0.49546439661E+03  0.79057580572E+02 0.  0.
          6    2    1    2  502    0  0.14165072090E+02 -0.12510917057E+03  0.19675373239E+03  0.28757448337E+03  0.16773222245E+03 0.  0.
         24    2    5    5    0    0 -0.23460092589E+02 -0.12689091324E+03  0.99010216298E+02  0.18271880845E+03  0.83255391564E+02 0.  0.
          4    1    6    6  501    0 -0.29851077786E+02 -0.51803439889E+02  0.88249032380E+02  0.10659537957E+03  0.00000000000E+00 0. -1.
         -3    1    6    6    0  501  0.63909851972E+01 -0.75087473351E+02  0.10761183917E+02  0.76123428886E+02  0.00000000000E+00 0.  1.
          5    1    5    5  502    0  0.37625164679E+02  0.17817426661E+01  0.97743516093E+02  0.10485567492E+03  0.47000000000E+01 0. -1.
         11    1    4    4    0    0 -0.25830382999E+02  0.13608744045E+01 -0.13961253146E+03  0.14198844885E+03  0.00000000000E+00 0. -1.
        -12    1    4    4    0    0  0.59709083899E+02  0.16804952457E+02 -0.34799089718E+03  0.35347594776E+03  0.00000000000E+00 0.  1.
         -5    1    3    3    0  504 -0.48043772990E+02  0.10694334371E+03 -0.35777295514E+03  0.37652179262E+03  0.47000000000E+01 0.  1.
<mgrwt>
<rscale>  2 0.21275486E+03</rscale>
<asrwt>0</asrwt>
<pdfrwt beam="1">  1       21 0.39302926E-01 0.21377251E+03</pdfrwt>
<pdfrwt beam="2">  1       21 0.13909102E+00 0.21377251E+03</pdfrwt>
<totfact> 0.22281764E+03</totfact>
</mgrwt>
</event>
<event>
12    1  0.2791583E-001  0.2060127E+03  0.7546771E-02  0.1144850E+00
         21   -1    0    0  502  503  0.00000000000E+00  0.00000000000E+00  0.29705879958E+03  0.29705879958E+03  0.00000000000E+00 0.  1.
         21   -1    0    0  503  504 -0.00000000000E+00 -0.00000000000E+00 -0.27134131728E+03  0.27134131728E+03  0.00000000000E+00 0.  1.
         -6    2    1    2    0  504  0.56602623573E+02 -0.96955027723E+02 -0.18292798524E+03  0.27518660064E+03  0.17222335205E+03 0.  0.
        -24    2    3    3    0    0  0.54359848699E+02 -0.19611883444E+02 -0.17194654981E+03  0.19689436648E+03  0.76564720563E+02 0.  0.
          6    2    1    2  502    0 -0.56602623573E+02  0.96955027723E+02  0.20864546753E+03  0.29321351623E+03  0.17273419053E+03 0.  0.
         24    2    5    5    0    0 -0.97434724178E+02  0.83290142466E+02  0.11521409347E+03  0.19023050215E+03  0.80514491281E+02 0.  0.
          2    1    6    6  501    0 -0.85019121210E+02  0.22009879738E+02  0.78060253810E+02  0.11749931490E+03  0.00000000000E+00 0. -1.
         -1    1    6    6    0  501 -0.12415602969E+02  0.61280262728E+02  0.37153839662E+02  0.72731187250E+02  0.00000000000E+00 0.  1.
          5    1    5    5  502    0  0.40832100605E+02  0.13664885257E+02  0.93431374062E+02  0.10298301408E+03  0.47000000000E+01 0. -1.
         11    1    4    4    0    0  0.24330306665E+02  0.27734454789E+02 -0.45522024222E+02  0.58595379460E+02  0.00000000000E+00 0. -1.
        -12    1    4    4    0    0  0.30029542033E+02 -0.47346338233E+02 -0.12642452559E+03  0.13829898701E+03  0.00000000000E+00 0.  1.
         -5    1    3    3    0  504  0.22427748742E+01 -0.77343144279E+02 -0.10981435427E+02  0.78292234162E+02  0.47000000000E+01 0.  1.
<mgrwt>
<rscale>  2 0.20590559E+03</rscale>
<asrwt>0</asrwt>
<pdfrwt beam="1">  1       21 0.45701354E-01 0.20601271E+03</pdfrwt>
<pdfrwt beam="2">  1       21 0.41744818E-01 0.20601271E+03</pdfrwt>
<totfact> 0.25165941E+04</totfact>
</mgrwt>
</event>
<event>
12    1  0.2791583E-001  0.2102106E+03  0.7546771E-02  0.1141706E+00
         21   -1    0    0  502  503  0.00000000000E+00  0.00000000000E+00  0.27145303676E+03  0.27145303676E+03  0.00000000000E+00 0.  1.
         21   -1    0    0  503  504 -0.00000000000E+00 -0.00000000000E+00 -0.28201337683E+03  0.28201337683E+03  0.00000000000E+00 0. -1.
         -6    2    1    2    0  504  0.11851178286E+03 -0.25391372665E+02 -0.18612495748E+03  0.28076859660E+03  0.17175197396E+03 0.  0.
        -24    2    3    3    0    0  0.12494774930E+02 -0.55127515449E+02 -0.10782294998E+03  0.14557562883E+03  0.79820503671E+02 0.  0.
          6    2    1    2  502    0 -0.11851178286E+03  0.25391372665E+02  0.17556461741E+03  0.27269781698E+03  0.16985699873E+03 0.  0.
         24    2    5    5    0    0 -0.29078766151E+02 -0.39278444608E+02  0.55872498365E+02  0.10982135120E+03  0.80935914487E+02 0.  0.
          4    1    6    6  501    0  0.31451062325E+01 -0.44378349001E+02 -0.72321999230E+00  0.44495534612E+02  0.00000000000E+00 0. -1.
         -3    1    6    6    0  501 -0.32223872384E+02  0.50999043936E+01  0.56595718357E+02  0.65325816586E+02  0.00000000000E+00 0.  1.
          5    1    5    5  502    0 -0.89433016707E+02  0.64669817272E+02  0.11969211904E+03  0.16287646578E+03  0.47000000000E+01 0. -1.
         13    1    4    4    0    0 -0.11264786929E+02  0.16678560941E+02 -0.36153243027E+02  0.41377853992E+02  0.00000000000E+00 0. -1.
        -14    1    4    4    0    0  0.23759561859E+02 -0.71806076389E+02 -0.71669706951E+02  0.10419777484E+03  0.00000000000E+00 0.  1.
         -5    1    3    3    0  504  0.10601700793E+03  0.29736142784E+02 -0.78302007501E+02  0.13519296778E+03  0.47000000000E+01 0.  1.
<mgrwt>
<rscale>  2 0.20982320E+03</rscale>
<asrwt>0</asrwt>
<pdfrwt beam="1">  1       21 0.41762005E-01 0.21021062E+03</pdfrwt>
<pdfrwt beam="2">  1       21 0.43386674E-01 0.21021062E+03</pdfrwt>
<totfact> 0.27914359E+04</totfact>
</mgrwt>
</event>
<event>
12    1  0.2791583E-001  0.2450214E+03  0.7546771E-02  0.1116607E+00
         21   -1    0    0  502  503  0.00000000000E+00  0.00000000000E+00  0.10016063354E+04  0.10016063354E+04  0.00000000000E+00 0. -1.
         21   -1    0    0  503  504 -0.00000000000E+00 -0.00000000000E+00 -0.67268588125E+02  0.67268588125E+02  0.00000000000E+00 0.  1.
         -6    2    1    2    0  504  0.14039647925E+03  0.99637349626E+02  0.28928874557E+03  0.37910880263E+03  0.17434658901E+03 0.  0.
        -24    2    3    3    0    0  0.38393162303E+01  0.51246911066E+02  0.13981446150E+03  0.17089222090E+03  0.83756082015E+02 0.  0.
          6    2    1    2  502    0 -0.14039647925E+03 -0.99637349626E+02  0.64504900170E+03  0.68976612088E+03  0.17335026419E+03 0.  0.
         24    2    5    5    0    0 -0.15164608367E+03 -0.32110262802E+02  0.49681480783E+03  0.52642008546E+03  0.79155223654E+02 0.  0.
          4    1    6    6  501    0  0.35141063457E+01  0.59268802818E+01  0.75834969643E+02  0.76147353691E+02  0.00000000000E+00 0. -1.
         -3    1    6    6    0  501 -0.15516019001E+03 -0.38037143084E+02  0.42097983818E+03  0.45027273177E+03  0.00000000000E+00 0.  1.
          5    1    5    5  502    0  0.11249604419E+02 -0.67527086824E+02  0.14823419387E+03  0.16334603542E+03  0.47000000000E+01 0. -1.
         13    1    4    4    0    0  0.36225335003E+01 -0.17959589916E+02  0.70886819115E+02  0.73216191810E+02  0.00000000000E+00 0. -1.
        -14    1    4    4    0    0  0.21678273007E+00  0.69206500982E+02  0.68927642390E+02  0.97676029088E+02  0.00000000000E+00 0.  1.
         -5    1    3    3    0  504  0.13655716302E+03  0.48390438560E+02  0.14947428406E+03  0.20821658174E+03  0.47000000000E+01 0.  1.
<mgrwt>
<rscale>  2 0.24484426E+03</rscale>
<asrwt>0</asrwt>
<pdfrwt beam="1">  1       21 0.15409327E+00 0.24502144E+03</pdfrwt>
<pdfrwt beam="2">  1       21 0.10349014E-01 0.24502144E+03</pdfrwt>
<totfact> 0.20579639E+04</totfact>
</mgrwt>
</event>
<event>
12    1  0.2791583E-001  0.2318725E+03  0.7546771E-02  0.1125574E+00
         21   -1    0    0  502  503  0.00000000000E+00  0.00000000000E+00  0.16091796829E+03  0.16091796829E+03  0.00000000000E+00 0.  1.
         21   -1    0    0  503  504 -0.00000000000E+00 -0.00000000000E+00 -0.37394677971E+03  0.37394677971E+03  0.00000000000E+00 0.  1.
         -6    2    1    2    0  504 -0.16252341743E+02 -0.15340886202E+03 -0.19569858359E+03  0.30234547889E+03  0.17122042936E+03 0.  0.
        -24    2    3    3    0    0 -0.20580898949E+02 -0.17999162859E+03 -0.15022322076E+03  0.24928439608E+03  0.82189624083E+02 0.  0.
          6    2    1    2  502    0  0.16252341743E+02  0.15340886202E+03 -0.17330227833E+02  0.23251926911E+03  0.17310822092E+03 0.  0.
         24    2    5    5    0    0  0.15787292092E+02  0.52030002786E+02 -0.70284658941E+02  0.11804590476E+03  0.77708059849E+02 0.  0.
          4    1    6    6  501    0  0.25947805979E+02 -0.72168087032E+01 -0.45814200175E+02  0.53144255575E+02  0.00000000000E+00 0. -1.
         -3    1    6    6    0  501 -0.10160513886E+02  0.59246811489E+02 -0.24470458766E+02  0.64901649180E+02  0.00000000000E+00 0.  1.
          5    1    5    5  502    0  0.46504965058E+00  0.10137885924E+03  0.52954431108E+02  0.11447336435E+03  0.47000000000E+01 0. -1.
         11    1    4    4    0    0 -0.34781175474E+02 -0.23902361807E+02 -0.31837273635E+02  0.52864591740E+02  0.00000000000E+00 0. -1.
        -12    1    4    4    0    0  0.14200276525E+02 -0.15608926678E+03 -0.11838594713E+03  0.19641980434E+03  0.00000000000E+00 0.  1.
         -5    1    3    3    0  504  0.43285572061E+01  0.26582766565E+02 -0.45475362824E+02  0.53061082817E+02  0.47000000000E+01 0.  1.
<mgrwt>
<rscale>  2 0.23152025E+03</rscale>
<asrwt>0</asrwt>
<pdfrwt beam="1">  1       21 0.24756611E-01 0.23187254E+03</pdfrwt>
<pdfrwt beam="2">  1       21 0.57530274E-01 0.23187254E+03</pdfrwt>
<totfact> 0.42932388E+04</totfact>
</mgrwt>
</event>
<event>
12    1  0.2791583E-001  0.1838210E+03  0.7546771E-02  0.1164455E+00
         21   -1    0    0  502  503  0.00000000000E+00  0.00000000000E+00  0.72240861318E+03  0.72240861318E+03  0.00000000000E+00 0. -1.
         21   -1    0    0  503  504 -0.00000000000E+00 -0.00000000000E+00 -0.50772193264E+02  0.50772193264E+02  0.00000000000E+00 0. -1.
         -6    2    1    2    0  504 -0.74026847432E+01  0.56812815287E+02  0.22411258777E+03  0.28985621197E+03  0.17466446661E+03 0.  0.
        -24    2    3    3    0    0 -0.25707891107E+01 -0.58728413231E+01  0.29621336816E+02  0.85401386983E+02  0.79842808581E+02 0.  0.
          6    2    1    2  502    0  0.74026847432E+01 -0.56812815287E+02  0.44752383215E+03  0.48332459448E+03  0.17332797688E+03 0.  0.
         24    2    5    5    0    0  0.57261492084E+02 -0.67424385093E+02  0.22589860931E+03  0.25586397046E+03  0.81309676610E+02 0.  0.
          4    1    6    6  501    0  0.48751324269E+02  0.31667840110E+01  0.99215851113E+02  0.11059161474E+03  0.00000000000E+00 0. -1.
         -3    1    6    6    0  501  0.85101678154E+01 -0.70591169104E+02  0.12668275820E+03  0.14527235572E+03  0.00000000000E+00 0.  1.
          5    1    5    5  502    0 -0.49858807341E+02  0.10611569806E+02  0.22162522283E+03  0.22746062402E+03  0.47000000000E+01 0. -1.
         13    1    4    4    0    0  0.31785385622E+02  0.18490073111E+02  0.64599263180E+01  0.37335294171E+02  0.00000000000E+00 0. -1.
        -14    1    4    4    0    0 -0.34356174733E+02 -0.24362914434E+02  0.23161410498E+02  0.48066092812E+02  0.00000000000E+00 0.  1.
         -5    1    3    3    0  504 -0.48318956325E+01  0.62685656610E+02  0.19449125096E+03  0.20445482498E+03  0.47000000000E+01 0.  1.
<mgrwt>
<rscale>  2 0.18350285E+03</rscale>
<asrwt>0</asrwt>
<pdfrwt beam="1">  1       21 0.11113978E+00 0.18382103E+03</pdfrwt>
<pdfrwt beam="2">  1       21 0.78111072E-02 0.18382103E+03</pdfrwt>
<totfact> 0.80001960E+04</totfact>
</mgrwt>
</event>
<event>
12    1  0.2791583E-001  0.2163345E+03  0.7546771E-02  0.1136766E+00
         21   -1    0    0  502  503  0.00000000000E+00  0.00000000000E+00  0.46178792178E+03  0.46178792178E+03  0.00000000000E+00 0. -1.
         21   -1    0    0  503  504 -0.00000000000E+00 -0.00000000000E+00 -0.18116723544E+03  0.18116723544E+03  0.00000000000E+00 0.  1.
         -6    2    1    2    0  504  0.12681757333E+03 -0.29794441788E+02 -0.73356794386E+02  0.22843343345E+03  0.17271423962E+03 0.  0.
        -24    2    3    3    0    0  0.58229227699E+02 -0.30001889290E+02  0.26122766954E+02  0.10750917073E+03  0.81148422769E+02 0.  0.
          6    2    1    2  502    0 -0.12681757333E+03  0.29794441788E+02  0.35397748073E+03  0.41452172377E+03  0.17192381146E+03 0.  0.
         24    2    5    5    0    0 -0.93610466841E+02  0.59372688651E+01  0.10532290596E+03  0.16248390086E+03  0.80684154924E+02 0.  0.
          4    1    6    6  501    0 -0.34084153346E+02 -0.31896466690E+02  0.17520852264E+02  0.49860749701E+02  0.00000000000E+00 0. -1.
         -3    1    6    6    0  501 -0.59526313494E+02  0.37833735555E+02  0.87802053698E+02  0.11262315116E+03  0.00000000000E+00 0.  1.
          5    1    5    5  502    0 -0.33207106485E+02  0.23857172923E+02  0.24865457477E+03  0.25203782291E+03  0.47000000000E+01 0. -1.
         13    1    4    4    0    0  0.33935643511E+01 -0.42265029361E+02  0.28797006384E+02  0.51255405204E+02  0.00000000000E+00 0. -1.
        -14    1    4    4    0    0  0.54835663348E+02  0.12263140071E+02 -0.26742394304E+01  0.56253765525E+02  0.00000000000E+00 0.  1.
         -5    1    3    3    0  504  0.68588345627E+02  0.20744750170E+00 -0.99479561340E+02  0.12092426272E+03  0.47000000000E+01 0.  1.
<mgrwt>
<rscale>  2 0.21617669E+03</rscale>
<asrwt>0</asrwt>
<pdfrwt beam="1">  1       21 0.71044295E-01 0.21633450E+03</pdfrwt>
<pdfrwt beam="2">  1       21 0.27871883E-01 0.21633450E+03</pdfrwt>
<totfact> 0.21741949E+04</totfact>
</mgrwt>
</event>
<event>
12    1  0.2791583E-001  0.2985965E+03  0.7546771E-02  0.1086009E+00
         21   -1    0    0  502  503  0.00000000000E+00  0.00000000000E+00  0.25153630368E+03  0.25153630368E+03  0.00000000000E+00 0. -1.
         21   -1    0    0  503  504 -0.00000000000E+00 -0.00000000000E+00 -0.35485025624E+03  0.35485025624E+03  0.00000000000E+00 0.  1.
         -6    2    1    2    0  504  0.19359402673E+03 -0.14570120475E+03 -0.35591903393E+02  0.30071022273E+03  0.17450606356E+03 0.  0.
        -24    2    3    3    0    0  0.19641719743E+02 -0.24337710437E+02 -0.19335412512E+02  0.87931308475E+02  0.79874498617E+02 0.  0.
          6    2    1    2  502    0 -0.19359402673E+03  0.14570120475E+03 -0.67722049168E+02  0.30567633718E+03  0.17362102095E+03 0.  0.
         24    2    5    5    0    0 -0.46364894025E+02  0.18078113972E+02 -0.57039779739E+02  0.11048342825E+03  0.80476890112E+02 0.  0.
          4    1    6    6  501    0 -0.67082272133E+02  0.51296290022E+01 -0.28913166999E+02  0.73227833193E+02  0.00000000000E+00 0. -1.
         -3    1    6    6    0  501  0.20717378108E+02  0.12948484970E+02 -0.28126612740E+02  0.37255595055E+02  0.00000000000E+00 0.  1.
          5    1    5    5  502    0 -0.14722913271E+03  0.12762309077E+03 -0.10682269428E+02  0.19519290893E+03  0.47000000000E+01 0. -1.
         13    1    4    4    0    0  0.75973411605E+01  0.14115730352E+02  0.23932789404E+02  0.28805413462E+02  0.00000000000E+00 0. -1.
        -14    1    4    4    0    0  0.12044378583E+02 -0.38453440789E+02 -0.43268201916E+02  0.59125895013E+02  0.00000000000E+00 0.  1.
         -5    1    3    3    0  504  0.17395230699E+03 -0.12136349431E+03 -0.16256490880E+02  0.21277891426E+03  0.47000000000E+01 0.  1.
<mgrwt>
<rscale>  2 0.29846730E+03</rscale>
<asrwt>0</asrwt>
<pdfrwt beam="1">  1       21 0.38697893E-01 0.29859647E+03</pdfrwt>
<pdfrwt beam="2">  1       21 0.54592347E-01 0.29859647E+03</pdfrwt>
<totfact> 0.19355165E+04</totfact>
</mgrwt>
</event>
<event>
12    1  0.2791583E-001  0.2314324E+03  0.7546771E-02  0.1125674E+00
         21   -1    0    0  502  503  0.00000000000E+00  0.00000000000E+00  0.22301703055E+03  0.22301703055E+03  0.00000000000E+00 0.  1.
         21   -1    0    0  503  504 -0.00000000000E+00 -0.00000000000E+00 -0.28537342745E+03  0.28537342745E+03  0.00000000000E+00 0. -1.
         -6    2    1    2    0  504 -0.14194165870E+03 -0.57344458283E+02 -0.13259193657E+03  0.26653518600E+03  0.17327597168E+03 0.  0.
        -24    2    3    3    0    0 -0.65112091460E+02 -0.77993447175E+02 -0.27515788680E+02  0.13465550599E+03  0.83978714024E+02 0.  0.
          6    2    1    2  502    0  0.14194165870E+03  0.57344458283E+02  0.70235539673E+02  0.24185527200E+03  0.17356589582E+03 0.  0.
         24    2    5    5    0    0  0.20007795767E+02 -0.15973168485E+02  0.62427132467E+02  0.99284578843E+02  0.72834241433E+02 0.  0.
          4    1    6    6  501    0  0.26930109416E+02 -0.42205669636E+02  0.39850320456E+02  0.63989041117E+02  0.00000000000E+00 0. -1.
         -3    1    6    6    0  501 -0.69223136489E+01  0.26232501150E+02  0.22576812011E+02  0.35295537727E+02  0.00000000000E+00 0.  1.
          5    1    5    5  502    0  0.12193386293E+03  0.73317626769E+02  0.78084072054E+01  0.14257069316E+03  0.47000000000E+01 0. -1.
         11    1    4    4    0    0 -0.81686734929E+01 -0.48195362289E+02 -0.46679258995E+02  0.67590483007E+02  0.00000000000E+00 0. -1.
        -12    1    4    4    0    0 -0.56943417967E+02 -0.29798084886E+02  0.19163470315E+02  0.67065022979E+02  0.00000000000E+00 0.  1.
         -5    1    3    3    0  504 -0.76829567242E+02  0.20648988892E+02 -0.10507614789E+03  0.13187968001E+03  0.47000000000E+01 0.  1.
<mgrwt>
<rscale>  2 0.23137801E+03</rscale>
<asrwt>0</asrwt>
<pdfrwt beam="1">  1       21 0.34310312E-01 0.23143237E+03</pdfrwt>
<pdfrwt beam="2">  1       21 0.43903604E-01 0.23143237E+03</pdfrwt>
<totfact> 0.40038569E+04</totfact>
</mgrwt>
</event>
<event>
12    1  0.2791583E-001  0.2003015E+03  0.7546771E-02  0.1149802E+00
         21   -1    0    0  502  503  0.00000000000E+00  0.00000000000E+00  0.67620143886E+03  0.67620143886E+03  0.00000000000E+00 0.  1.
         21   -1    0    0  503  504 -0.00000000000E+00 -0.00000000000E+00 -0.58902188905E+02  0.58902188905E+02  0.00000000000E+00 0.  1.
         -6    2    1    2    0  504  0.99389420949E+02 -0.18812414224E+01  0.30435198447E+03  0.36434987633E+03  0.17389337499E+03 0.  0.
        -24    2    3    3    0    0  0.12814101557E+03 -0.23604648459E+02  0.18532815976E+03  0.23990180903E+03  0.78924342727E+02 0.  0.
          6    2    1    2  502    0 -0.99389420949E+02  0.18812414224E+01  0.31294726548E+03  0.37075375143E+03  0.17216433185E+03 0.  0.
         24    2    5    5    0    0 -0.78104387160E+02  0.63426561170E+02  0.21726895973E+03  0.25492065065E+03  0.87495790228E+02 0.  0.
          4    1    6    6  501    0  0.96341067672E+01  0.41836875687E+02  0.73252993448E+02  0.84906661868E+02  0.00000000000E+00 0. -1.
         -3    1    6    6    0  501 -0.87738493927E+02  0.21589685483E+02  0.14401596628E+03  0.17001398878E+03  0.00000000000E+00 0.  1.
          5    1    5    5  502    0 -0.21285033789E+02 -0.61545319748E+02  0.95678305747E+02  0.11583310078E+03  0.47000000000E+01 0. -1.
         11    1    4    4    0    0  0.10515063622E+03 -0.49720809955E+02  0.15469700831E+03  0.19354580755E+03  0.00000000000E+00 0. -1.
        -12    1    4    4    0    0  0.22990379354E+02  0.26116161496E+02  0.30631151451E+02  0.46356001481E+02  0.00000000000E+00 0.  1.
         -5    1    3    3    0  504 -0.28751594621E+02  0.21723407036E+02  0.11902382471E+03  0.12444806730E+03  0.47000000000E+01 0.  1.
<mgrwt>
<rscale>  2 0.19992566E+03</rscale>
<asrwt>0</asrwt>
<pdfrwt beam="1">  1       21 0.10403098E+00 0.20030153E+03</pdfrwt>
<pdfrwt beam="2">  1       21 0.90618757E-02 0.20030153E+03</pdfrwt>
<totfact> 0.71839541E+04</totfact>
</mgrwt>
</event>
<event>
12    1  0.2791583E-001  0.1869173E+03  0.7546771E-02  0.1161486E+00
         21   -1    0    0  502  503  0.00000000000E+00  0.00000000000E+00  0.28989751482E+03  0.28989751482E+03  0.00000000000E+00 0.  1.
         21   -1    0    0  503  504 -0.00000000000E+00 -0.00000000000E+00 -0.12074472256E+03  0.12074472256E+03  0.00000000000E+00 0.  1.
         -6    2    1    2    0  504  0.26139721734E+02  0.62489783366E+02  0.10131945648E+03  0.21179697806E+03  0.17321682822E+03 0.  0.
        -24    2    3    3    0    0  0.29895288086E+02 -0.31086152549E+02  0.44172213944E+02  0.10198597046E+03  0.81178054645E+02 0.  0.
          6    2    1    2  502    0 -0.26139721734E+02 -0.62489783366E+02  0.67833335775E+02  0.19884525931E+03  0.17421199049E+03 0.  0.
         24    2    5    5    0    0 -0.47001532077E+02  0.73388053331E+01  0.82910347396E+02  0.12427547180E+03  0.79418292003E+02 0.  0.
          2    1    6    6  501    0 -0.29868358901E+02  0.43371166864E+02  0.46009230369E+02  0.69928722694E+02  0.00000000000E+00 0. -1.
         -1    1    6    6    0  501 -0.17133173176E+02 -0.36032361531E+02  0.36901117027E+02  0.54346749106E+02  0.00000000000E+00 0.  1.
          5    1    5    5  502    0  0.20861810342E+02 -0.69828588699E+02 -0.15077011621E+02  0.74569787514E+02  0.47000000000E+01 0. -1.
         11    1    4    4    0    0 -0.15640525971E+02  0.17859118905E+02  0.42381624494E+01  0.24115061718E+02  0.00000000000E+00 0. -1.
        -12    1    4    4    0    0  0.45535814057E+02 -0.48945271454E+02  0.39934051495E+02  0.77870908742E+02  0.00000000000E+00 0.  1.
         -5    1    3    3    0  504 -0.37555663517E+01  0.93575935915E+02  0.57147242539E+02  0.10981100760E+03  0.47000000000E+01 0.  1.
<mgrwt>
<rscale>  2 0.18668507E+03</rscale>
<asrwt>0</asrwt>
<pdfrwt beam="1">  1       21 0.44599618E-01 0.18691730E+03</pdfrwt>
<pdfrwt beam="2">  1       21 0.18576111E-01 0.18691730E+03</pdfrwt>
<totfact> 0.12807850E+05</totfact>
</mgrwt>
</event>
<event>
12    1  0.2791583E-001  0.2149660E+03  0.7546771E-02  0.1138023E+00
         21   -1    0    0  502  503  0.00000000000E+00  0.00000000000E+00  0.37677348184E+02  0.37677348184E+02  0.00000000000E+00 0. -1.
         21   -1    0    0  503  504 -0.00000000000E+00 -0.00000000000E+00 -0.12167519317E+04  0.12167519317E+04  0.00000000000E+00 0. -1.
         -6    2    1    2    0  504  0.12474378149E+03 -0.48735214406E+01 -0.59496259205E+03  0.63260639350E+03  0.17500171690E+03 0.  0.
        -24    2    3    3    0    0  0.16833715591E+01  0.14070168959E+02 -0.30708864193E+03  0.31892466139E+03  0.84904076731E+02 0.  0.
          6    2    1    2  502    0 -0.12474378149E+03  0.48735214406E+01 -0.58411199144E+03  0.62182288636E+03  0.17289338112E+03 0.  0.
         24    2    5    5    0    0 -0.13388377438E+03 -0.80735255195E+01 -0.58472153185E+03  0.60528121067E+03  0.80473767978E+02 0.  0.
          2    1    6    6  501    0 -0.12130000741E+03 -0.42182285901E+01 -0.35485227702E+03  0.37503549667E+03  0.00000000000E+00 0. -1.
         -1    1    6    6    0  501 -0.12583766964E+02 -0.38552969294E+01 -0.22986925482E+03  0.23024571401E+03  0.00000000000E+00 0.  1.
          5    1    5    5  502    0  0.91399928913E+01  0.12947046960E+02  0.60954041231E+00  0.16541675688E+02  0.47000000000E+01 0. -1.
         11    1    4    4    0    0  0.19537544425E+02 -0.24002345107E+02 -0.22054254596E+03  0.22270348626E+03  0.00000000000E+00 0. -1.
        -12    1    4    4    0    0 -0.17854172866E+02  0.38072514065E+02 -0.86546095963E+02  0.96221175125E+02  0.00000000000E+00 0.  1.
         -5    1    3    3    0  504  0.12306040993E+03 -0.18943690399E+02 -0.28787395013E+03  0.31368173211E+03  0.47000000000E+01 0.  1.
<mgrwt>
<rscale>  2 0.21453646E+03</rscale>
<asrwt>0</asrwt>
<pdfrwt beam="1">  1       21 0.57965147E-02 0.21496596E+03</pdfrwt>
<pdfrwt beam="2">  1       21 0.18719262E+00 0.21496596E+03</pdfrwt>
<totfact> 0.33550532E+04</totfact>
</mgrwt>
</event>
<event>
12    1  0.2791583E-001  0.1805420E+03  0.7546771E-02  0.1167438E+00
         21   -1    0    0  502  503  0.00000000000E+00  0.00000000000E+00  0.94634965762E+03  0.94634965762E+03  0.00000000000E+00 0.  1.
         21   -1    0    0  503  504 -0.00000000000E+00 -0.00000000000E+00 -0.34508648477E+02  0.34508648477E+02  0.00000000000E+00 0.  1.
         -6    2    1    2    0  504  0.16223871044E+01  0.49532268872E+02  0.41869768739E+03  0.45570523790E+03  0.17292609006E+03 0.  0.
        -24    2    3    3    0    0  0.21272834791E+02  0.10609740059E+02  0.39855607670E+03  0.40744678968E+03  0.81245554101E+02 0.  0.
          6    2    1    2  502    0 -0.16223871044E+01 -0.49532268872E+02  0.49314332175E+03  0.52515306819E+03  0.17360683007E+03 0.  0.
         24    2    5    5    0    0  0.32814187791E+02  0.18497251519E+02  0.39804542520E+03  0.40317112992E+03  0.51844770707E+02 0.  0.
          4    1    6    6  501    0  0.24818007414E+02  0.32118845745E+02  0.35511445145E+03  0.35742667412E+03  0.00000000000E+00 0. -1.
         -3    1    6    6    0  501  0.79961803772E+01 -0.13621594226E+02  0.42930973746E+02  0.45744455802E+02  0.00000000000E+00 0.  1.
          5    1    5    5  502    0 -0.34436574896E+02 -0.68029520391E+02  0.95097896552E+02  0.12198193827E+03  0.47000000000E+01 0. -1.
         13    1    4    4    0    0 -0.31207619943E+02  0.73333513128E+01  0.14769700756E+03  0.15113603020E+03  0.00000000000E+00 0. -1.
        -14    1    4    4    0    0  0.52480454735E+02  0.32763887465E+01  0.25085906914E+03  0.25631075948E+03  0.00000000000E+00 0.  1.
         -5    1    3    3    0  504 -0.19650447687E+02  0.38922528813E+02  0.20141610689E+02  0.48258448220E+02  0.47000000000E+01 0.  1.
<mgrwt>
<rscale>  2 0.18037814E+03</rscale>
<asrwt>0</asrwt>
<pdfrwt beam="1">  1       21 0.14559223E+00 0.18054199E+03</pdfrwt>
<pdfrwt beam="2">  1       21 0.53090236E-02 0.18054199E+03</pdfrwt>
<totfact> 0.78998292E+04</totfact>
</mgrwt>
</event>
<event>
12    1  0.2791583E-001  0.2244911E+03  0.7546771E-02  0.1130626E+00
         21   -1    0    0  502  503  0.00000000000E+00  0.00000000000E+00  0.32177847210E+03  0.32177847210E+03  0.00000000000E+00 0.  1.
         21   -1    0    0  503  504 -0.00000000000E+00 -0.00000000000E+00 -0.15678377325E+03  0.15678377325E+03  0.00000000000E+00 0. -1.
         -6    2    1    2    0  504 -0.14000247469E+03  0.31068034604E+02  0.71137413824E+02  0.23524058607E+03  0.17237078057E+03 0.  0.
        -24    2    3    3    0    0 -0.77878821897E+02 -0.50062135892E+02  0.66481672507E+02  0.13284322903E+03  0.68236224759E+02 0.  0.
          6    2    1    2  502    0  0.14000247469E+03 -0.31068034604E+02  0.93857285025E+02  0.24332165927E+03  0.17271457444E+03 0.  0.
         24    2    5    5    0    0  0.24992055161E+02  0.32519367439E+02  0.57184074943E+02  0.10680144598E+03  0.80339394797E+02 0.  0.
          4    1    6    6  501    0 -0.13545514169E+02 -0.17845715438E+02  0.15810254502E+01  0.22459967833E+02  0.00000000000E+00 0. -1.
         -3    1    6    6    0  501  0.38537569329E+02  0.50365082877E+02  0.55603049493E+02  0.84341478146E+02  0.00000000000E+00 0.  1.
          5    1    5    5  502    0  0.11501041953E+03 -0.63587402043E+02  0.36673210082E+02  0.13652021329E+03  0.47000000000E+01 0. -1.
         11    1    4    4    0    0 -0.50966030102E+01 -0.35520201558E+02  0.45378343807E+01  0.36169766682E+02  0.00000000000E+00 0. -1.
        -12    1    4    4    0    0 -0.72782218887E+02 -0.14541934334E+02  0.61943838126E+02  0.96673462347E+02  0.00000000000E+00 0.  1.
         -5    1    3    3    0  504 -0.62123652798E+02  0.81130170496E+02  0.46557413178E+01  0.10239735704E+03  0.47000000000E+01 0.  1.
<mgrwt>
<rscale>  2 0.22442494E+03</rscale>
<asrwt>0</asrwt>
<pdfrwt beam="1">  1       21 0.49504380E-01 0.22449107E+03</pdfrwt>
<pdfrwt beam="2">  1       21 0.24120581E-01 0.22449107E+03</pdfrwt>
<totfact> 0.62200274E+04</totfact>
</mgrwt>
</event>
<event>
12    1  0.2791583E-001  0.1945875E+03  0.7546771E-02  0.1155244E+00
         21   -1    0    0  502  503  0.00000000000E+00  0.00000000000E+00  0.31773641266E+03  0.31773641266E+03  0.00000000000E+00 0. -1.
         21   -1    0    0  503  504 -0.00000000000E+00 -0.00000000000E+00 -0.17413836209E+03  0.17413836209E+03  0.00000000000E+00 0.  1.
         -6    2    1    2    0  504 -0.33575176525E+02  0.81407828495E+02 -0.69794360374E+02  0.20308311672E+03  0.16916551817E+03 0.  0.
        -24    2    3    3    0    0  0.30173356396E+02  0.90673655029E+02 -0.36514808214E+02  0.13042398389E+03  0.80900810889E+02 0.  0.
          6    2    1    2  502    0  0.33575176525E+02 -0.81407828495E+02  0.21339241094E+03  0.28879165803E+03  0.17352168072E+03 0.  0.
         24    2    5    5    0    0  0.42193366811E+02 -0.57984039281E+02  0.42252902792E+02  0.11577787720E+03  0.80478444576E+02 0.  0.
          4    1    6    6  501    0  0.59571557788E+02 -0.59015167711E+02  0.48983816536E+02  0.97113206104E+02  0.00000000000E+00 0. -1.
         -3    1    6    6    0  501 -0.17378190977E+02  0.10311284300E+01 -0.67309137443E+01  0.18664671101E+02  0.00000000000E+00 0.  1.
          5    1    5    5  502    0 -0.86181902860E+01 -0.23423789215E+02  0.17113950815E+03  0.17301378083E+03  0.47000000000E+01 0. -1.
         11    1    4    4    0    0 -0.25724118957E+02  0.11397061662E+02 -0.10052393978E+02  0.29877649428E+02  0.00000000000E+00 0. -1.
        -12    1    4    4    0    0  0.55897475353E+02  0.79276593367E+02 -0.26462414236E+02  0.10054633446E+03  0.00000000000E+00 0.  1.
         -5    1    3    3    0  504 -0.63748532921E+02 -0.92658265337E+01 -0.33279552159E+02  0.72659132825E+02  0.47000000000E+01 0.  1.
<mgrwt>
<rscale>  2 0.19361160E+03</rscale>
<asrwt>0</asrwt>
<pdfrwt beam="1">  1       21 0.48882525E-01 0.19458751E+03</pdfrwt>
<pdfrwt beam="2">  1       21 0.26790517E-01 0.19458751E+03</pdfrwt>
<totfact> 0.52940137E+04</totfact>
</mgrwt>
</event>
<event>
12    1  0.2791583E-001  0.2040797E+03  0.7546771E-02  0.1146392E+00
         21   -1    0    0  502  503  0.00000000000E+00  0.00000000000E+00  0.77956423742E+03  0.77956423742E+03  0.00000000000E+00 0. -1.
         21   -1    0    0  503  504 -0.00000000000E+00 -0.00000000000E+00 -0.13463248880E+03  0.13463248880E+03  0.00000000000E+00 0.  1.
         -6    2    1    2    0  504 -0.23094628257E+02 -0.10564077762E+03 -0.32753978064E+02  0.20644927861E+03  0.17278641674E+03 0.  0.
        -24    2    3    3    0    0 -0.47519864984E+02 -0.12555470733E+03  0.71763823621E+01  0.15536424686E+03  0.77874428640E+02 0.  0.
          6    2    1    2  502    0  0.23094628257E+02  0.10564077762E+03  0.67768572668E+03  0.70774744761E+03  0.17307561846E+03 0.  0.
         24    2    5    5    0    0  0.49066817818E+02  0.10251665842E+02  0.21537599275E+03  0.23496206569E+03  0.79421060153E+02 0.  0.
          2    1    6    6  501    0 -0.20117436424E+02  0.34204083424E+00  0.81427107430E+02  0.83876111406E+02  0.00000000000E+00 0. -1.
         -1    1    6    6    0  501  0.69184254241E+02  0.99096250073E+01  0.13394888532E+03  0.15108595429E+03  0.00000000000E+00 0.  1.
          5    1    5    5  502    0 -0.25972189561E+02  0.95389111782E+02  0.46230973393E+03  0.47278538192E+03  0.47000000000E+01 0. -1.
         11    1    4    4    0    0 -0.17132454459E+01 -0.74280410407E+02  0.33809411280E+02  0.81630820597E+02  0.00000000000E+00 0. -1.
        -12    1    4    4    0    0 -0.45806619538E+02 -0.51274296925E+02 -0.26633028918E+02  0.73733426260E+02  0.00000000000E+00 0.  1.
         -5    1    3    3    0  504  0.24425236727E+02  0.19913929709E+02 -0.39930360426E+02  0.51085031755E+02  0.47000000000E+01 0.  1.
<mgrwt>
<rscale>  2 0.20401832E+03</rscale>
<asrwt>0</asrwt>
<pdfrwt beam="1">  1       21 0.11993296E+00 0.20407965E+03</pdfrwt>
<pdfrwt beam="2">  1       21 0.20712691E-01 0.20407965E+03</pdfrwt>
<totfact> 0.11341323E+04</totfact>
</mgrwt>
</event>
<event>
12    1  0.2791583E-001  0.1768971E+03  0.7546771E-02  0.1171047E+00
         21   -1    0    0  502  503  0.00000000000E+00  0.00000000000E+00  0.36558808489E+02  0.36558808489E+02  0.00000000000E+00 0.  1.
         21   -1    0    0  503  504 -0.00000000000E+00 -0.00000000000E+00 -0.23525582723E+04  0.23525582723E+04  0.00000000000E+00 0.  1.
         -6    2    1    2    0  504  0.25827840480E+02  0.20075053339E+02 -0.21130502926E+04  0.21204419631E+04  0.17384618115E+03 0.  0.
        -24    2    3    3    0    0  0.50623518426E+02  0.37600451307E+02 -0.20242707698E+04  0.20264959207E+04  0.70972054190E+02 0.  0.
          6    2    1    2  502    0 -0.25827840480E+02 -0.20075053339E+02 -0.20294917120E+03  0.26867511768E+03  0.17299672731E+03 0.  0.
         24    2    5    5    0    0 -0.40287257556E+02 -0.75271482094E+02 -0.14806840098E+03  0.18936742934E+03  0.81528601051E+02 0.  0.
          2    1    6    6  501    0  0.11697126210E+02 -0.61411153635E+02 -0.63293440877E+02  0.88961858178E+02  0.00000000000E+00 0. -1.
         -1    1    6    6    0  501 -0.51984383766E+02 -0.13860328458E+02 -0.84774960104E+02  0.10040557117E+03  0.00000000000E+00 0.  1.
          5    1    5    5  502    0  0.14459417076E+02  0.55196428754E+02 -0.54880770223E+02  0.79307688339E+02  0.47000000000E+01 0. -1.
         13    1    4    4    0    0  0.32926838126E+02 -0.16052513581E+02 -0.99707386881E+03  0.99774654082E+03  0.00000000000E+00 0. -1.
        -14    1    4    4    0    0  0.17696680300E+02  0.53652964888E+02 -0.10271969010E+04  0.10287493799E+04  0.00000000000E+00 0.  1.
         -5    1    3    3    0  504 -0.24795677946E+02 -0.17525397968E+02 -0.88779522770E+02  0.93946042396E+02  0.47000000000E+01 0.  1.
<mgrwt>
<rscale>  2 0.17668803E+03</rscale>
<asrwt>0</asrwt>
<pdfrwt beam="1">  1       21 0.56244298E-02 0.17689709E+03</pdfrwt>
<pdfrwt beam="2">  1       21 0.36193219E+00 0.17689709E+03</pdfrwt>
<totfact> 0.33448375E+03</totfact>
</mgrwt>
</event>
<event>
12    1  0.2791583E-001  0.2328965E+03  0.7546771E-02  0.1124783E+00
         21   -1    0    0  502  503  0.00000000000E+00  0.00000000000E+00  0.10499591599E+03  0.10499591599E+03  0.00000000000E+00 0.  1.
         21   -1    0    0  503  504 -0.00000000000E+00 -0.00000000000E+00 -0.86457262902E+03  0.86457262902E+03  0.00000000000E+00 0.  1.
         -6    2    1    2    0  504 -0.11178825472E+03  0.10917558377E+03 -0.68780964150E+03  0.72586530114E+03  0.17141298222E+03 0.  0.
        -24    2    3    3    0    0 -0.39532612100E+01  0.83805376934E+02 -0.45272393466E+03  0.46594336520E+03  0.71451305698E+02 0.  0.
          6    2    1    2  502    0  0.11178825472E+03 -0.10917558377E+03 -0.71767071527E+02  0.24370324387E+03  0.17269868712E+03 0.  0.
         24    2    5    5    0    0  0.13329626331E+03 -0.10389336090E+03 -0.96315181388E+02  0.21030869328E+03  0.79946282288E+02 0.  0.
          2    1    6    6  501    0  0.11216737585E+03 -0.59830879207E+02 -0.99356967276E+02  0.16134764101E+03  0.00000000000E+00 0. -1.
         -1    1    6    6    0  501  0.21128887452E+02 -0.44062481692E+02  0.30417858880E+01  0.48961052268E+02  0.00000000000E+00 0.  1.
          5    1    5    5  502    0 -0.21508008586E+02 -0.52822228724E+01  0.24548109860E+02  0.33394550596E+02  0.47000000000E+01 0. -1.
         11    1    4    4    0    0  0.25622920071E+02  0.23020859193E+02 -0.79414448450E+02  0.86562974842E+02  0.00000000000E+00 0. -1.
        -12    1    4    4    0    0 -0.29576181281E+02  0.60784517741E+02 -0.37330948621E+03  0.37938039036E+03  0.00000000000E+00 0.  1.
         -5    1    3    3    0  504 -0.10783499351E+03  0.25370206838E+02 -0.23508570684E+03  0.25992193594E+03  0.47000000000E+01 0.  1.
<mgrwt>
<rscale>  2 0.23265814E+03</rscale>
<asrwt>0</asrwt>
<pdfrwt beam="1">  1       21 0.16153218E-01 0.23289645E+03</pdfrwt>
<pdfrwt beam="2">  1       21 0.13301117E+00 0.23289645E+03</pdfrwt>
<totfact> 0.13612202E+04</totfact>
</mgrwt>
</event>
<event>
12    1  0.2791583E-001  0.2368547E+03  0.7546771E-02  0.1122020E+00
         21   -1    0    0  502  503  0.00000000000E+00  0.00000000000E+00  0.81323128457E+02  0.81323128457E+02  0.00000000000E+00 0.  1.
         21   -1    0    0  503  504 -0.00000000000E+00 -0.00000000000E+00 -0.10560507108E+04  0.10560507108E+04  0.00000000000E+00 0. -1.
         -6    2    1    2    0  504  0.14570040806E+03 -0.67062586520E+02 -0.82358806867E+03  0.85696991763E+03  0.17428176450E+03 0.  0.
        -24    2    3    3    0    0  0.37972980234E+02 -0.83909031577E+02 -0.36341696470E+03  0.38403383701E+03  0.83231153597E+02 0.  0.
          6    2    1    2  502    0 -0.14570040806E+03  0.67062586520E+02 -0.15113951368E+03  0.28040392164E+03  0.17337014522E+03 0.  0.
         24    2    5    5    0    0 -0.14895535074E+03  0.57824184636E+02 -0.17750329967E+03  0.25188933006E+03  0.80059230320E+02 0.  0.
          2    1    6    6  501    0 -0.59951634025E+02  0.61709247226E+02 -0.11239766107E+03  0.14154668428E+03  0.00000000000E+00 0. -1.
         -1    1    6    6    0  501 -0.89003716713E+02 -0.38850625896E+01 -0.65105638602E+02  0.11034264578E+03  0.00000000000E+00 0.  1.
          5    1    5    5  502    0  0.32549426750E+01  0.92384018831E+01  0.26363785993E+02  0.28514591581E+02  0.47000000000E+01 0. -1.
         13    1    4    4    0    0  0.64673843561E+02 -0.57317176372E+02 -0.25729332658E+03  0.27141816566E+03  0.00000000000E+00 0. -1.
        -14    1    4    4    0    0 -0.26700863327E+02 -0.26591855205E+02 -0.10612363813E+03  0.11261567136E+03  0.00000000000E+00 0.  1.
         -5    1    3    3    0  504  0.10772742783E+03  0.16846445057E+02 -0.46017110397E+03  0.47293608061E+03  0.47000000000E+01 0.  1.
<mgrwt>
<rscale>  2 0.23668699E+03</rscale>
<asrwt>0</asrwt>
<pdfrwt beam="1">  1       21 0.12511251E-01 0.23685467E+03</pdfrwt>
<pdfrwt beam="2">  1       21 0.16246934E+00 0.23685467E+03</pdfrwt>
<totfact> 0.12752003E+04</totfact>
</mgrwt>
</event>
<event>
12    1  0.2791583E-001  0.1992542E+03  0.7546771E-02  0.1150814E+00
         21   -1    0    0  502  503  0.00000000000E+00  0.00000000000E+00  0.36773067436E+03  0.36773067436E+03  0.00000000000E+00 0.  1.
         21   -1    0    0  503  504 -0.00000000000E+00 -0.00000000000E+00 -0.46270196710E+03  0.46270196710E+03  0.00000000000E+00 0.  1.
         -6    2    1    2    0  504 -0.37302226323E+02  0.88425170818E+02 -0.41167967273E+03  0.45736461191E+03  0.17461892327E+03 0.  0.
        -24    2    3    3    0    0 -0.75082842163E+02  0.18899038565E+02 -0.17596157486E+03  0.20867530843E+03  0.81168353913E+02 0.  0.
          6    2    1    2  502    0  0.37302226323E+02 -0.88425170818E+02  0.31670837999E+03  0.37306802954E+03  0.17223556483E+03 0.  0.
         24    2    5    5    0    0  0.70198330178E+02 -0.12465853156E+02  0.12685854162E+03  0.16590378863E+03  0.79672921644E+02 0.  0.
          2    1    6    6  501    0  0.16592697627E+01  0.19935153789E+02  0.23649090705E+01  0.20143394144E+02  0.00000000000E+00 0. -1.
         -1    1    6    6    0  501  0.68539060415E+02 -0.32401006945E+02  0.12449363255E+03  0.14576039448E+03  0.00000000000E+00 0.  1.
          5    1    5    5  502    0 -0.32896103855E+02 -0.75959317662E+02  0.18984983837E+03  0.20716424092E+03  0.47000000000E+01 0. -1.
         13    1    4    4    0    0  0.31670844790E+01  0.25018115356E+02 -0.14356182646E+02  0.29017865191E+02  0.00000000000E+00 0. -1.
        -14    1    4    4    0    0 -0.78249926642E+02 -0.61190767905E+01 -0.16160539221E+03  0.17965744324E+03  0.00000000000E+00 0.  1.
         -5    1    3    3    0  504  0.37780615840E+02  0.69526132252E+02 -0.23571809787E+03  0.24868930348E+03  0.47000000000E+01 0.  1.
<mgrwt>
<rscale>  2 0.19873080E+03</rscale>
<asrwt>0</asrwt>
<pdfrwt beam="1">  1       21 0.56573950E-01 0.19925420E+03</pdfrwt>
<pdfrwt beam="2">  1       21 0.71184918E-01 0.19925420E+03</pdfrwt>
<totfact> 0.52190699E+03</totfact>
</mgrwt>
</event>
<event>
12    1  0.2791583E-001  0.1995411E+03  0.7546771E-02  0.1150510E+00
         21   -1    0    0  502  503  0.00000000000E+00  0.00000000000E+00  0.70569808770E+03  0.70569808770E+03  0.00000000000E+00 0.  1.
         21   -1    0    0  503  504 -0.00000000000E+00 -0.00000000000E+00 -0.12613751309E+03  0.12613751309E+03  0.00000000000E+00 0.  1.
         -6    2    1    2    0  504 -0.88765172981E+01 -0.98066768841E+02 -0.21134000986E+02  0.19886591940E+03  0.17147922379E+03 0.  0.
        -24    2    3    3    0    0 -0.44864714645E+02 -0.41915346680E+01 -0.46837747612E+02  0.94988671988E+02  0.69272372716E+02 0.  0.
          6    2    1    2  502    0  0.88765172981E+01  0.98066768841E+02  0.60069457560E+03  0.63296968139E+03  0.17355333674E+03 0.  0.
         24    2    5    5    0    0  0.52577625588E+02  0.11323025969E+03  0.37021583332E+03  0.39784788537E+03  0.75084473971E+02 0.  0.
          4    1    6    6  501    0 -0.17107790952E+02  0.38356676897E+02  0.84211488207E+02  0.94103591429E+02  0.00000000000E+00 0. -1.
         -3    1    6    6    0  501  0.69685416541E+02  0.74873582790E+02  0.28600434512E+03  0.30374429395E+03  0.00000000000E+00 0.  1.
          5    1    5    5  502    0 -0.43701108290E+02 -0.15163490846E+02  0.23047874227E+03  0.23512179601E+03  0.47000000000E+01 0. -1.
         13    1    4    4    0    0 -0.48707774734E+02 -0.13969045402E+02 -0.39411408922E+01  0.50824345943E+02  0.00000000000E+00 0. -1.
        -14    1    4    4    0    0  0.38430600889E+01  0.97775107337E+01 -0.42896606720E+02  0.44164326046E+02  0.00000000000E+00 0.  1.
         -5    1    3    3    0  504  0.35988197347E+02 -0.93875234173E+02  0.25703746626E+02  0.10387724741E+03  0.47000000000E+01 0.  1.
<mgrwt>
<rscale>  2 0.19908922E+03</rscale>
<asrwt>0</asrwt>
<pdfrwt beam="1">  1       21 0.10856893E+00 0.19954108E+03</pdfrwt>
<pdfrwt beam="2">  1       21 0.19405772E-01 0.19954108E+03</pdfrwt>
<totfact> 0.16387118E+04</totfact>
</mgrwt>
</event>
<event>
12    1  0.2791583E-001  0.1896824E+03  0.7546771E-02  0.1159250E+00
         21   -1    0    0  502  503  0.00000000000E+00  0.00000000000E+00  0.11947557707E+03  0.11947557707E+03  0.00000000000E+00 0. -1.
         21   -1    0    0  503  504 -0.00000000000E+00 -0.00000000000E+00 -0.30366299860E+03  0.30366299860E+03  0.00000000000E+00 0.  1.
         -6    2    1    2    0  504 -0.55147267934E+02 -0.40847163563E+02 -0.12239027992E+03  0.22574051167E+03  0.17683236711E+03 0.  0.
        -24    2    3    3    0    0 -0.61922290779E+02  0.38890106592E+02 -0.60343503377E+02  0.12437076438E+03  0.80498062998E+02 0.  0.
          6    2    1    2  502    0  0.55147267934E+02  0.40847163563E+02 -0.61797141608E+02  0.19739806400E+03  0.17446316811E+03 0.  0.
         24    2    5    5    0    0  0.22708355659E+02  0.27178970566E+02 -0.10824228110E+03  0.13893146232E+03  0.79568800082E+02 0.  0.
          4    1    6    6  501    0  0.30931637473E+01 -0.27675495449E+02 -0.45233379833E+02  0.53118352397E+02  0.00000000000E+00 0. -1.
         -3    1    6    6    0  501  0.19615191912E+02  0.54854466015E+02 -0.63008901267E+02  0.85813109922E+02  0.00000000000E+00 0.  1.
          5    1    5    5  502    0  0.32438912275E+02  0.13668192996E+02  0.46445139492E+02  0.58466601678E+02  0.47000000000E+01 0. -1.
         13    1    4    4    0    0 -0.25465509107E+01  0.24020684636E+02  0.14119527480E+02  0.27979264969E+02  0.00000000000E+00 0. -1.
        -14    1    4    4    0    0 -0.59375739868E+02  0.14869421956E+02 -0.74463030857E+02  0.96391499411E+02  0.00000000000E+00 0.  1.
         -5    1    3    3    0  504  0.67750228452E+01 -0.79737270155E+02 -0.62046776542E+02  0.10136974729E+03  0.47000000000E+01 0.  1.
<mgrwt>
<rscale>  2 0.18912825E+03</rscale>
<asrwt>0</asrwt>
<pdfrwt beam="1">  1       21 0.18380858E-01 0.18968236E+03</pdfrwt>
<pdfrwt beam="2">  1       21 0.46717383E-01 0.18968236E+03</pdfrwt>
<totfact> 0.11861293E+05</totfact>
</mgrwt>
</event>
<event>
12    1  0.2791583E-001  0.1929460E+03  0.7546771E-02  0.1156155E+00
         21   -1    0    0  502  503  0.00000000000E+00  0.00000000000E+00  0.16351020066E+03  0.16351020066E+03  0.00000000000E+00 0.  1.
         21   -1    0    0  503  504 -0.00000000000E+00 -0.00000000000E+00 -0.28004011851E+03  0.28004011851E+03  0.00000000000E+00 0.  1.
         -6    2    1    2    0  504 -0.19401145490E+02 -0.81623699370E+02 -0.15590183140E+03  0.24805957507E+03  0.17375079570E+03 0.  0.
        -24    2    3    3    0    0 -0.40809514458E+02 -0.91216733624E+02 -0.17524970150E+03  0.21728987170E+03  0.80724974493E+02 0.  0.
          6    2    1    2  502    0  0.19401145490E+02  0.81623699370E+02  0.39371913548E+02  0.19549074409E+03  0.17212684481E+03 0.  0.
         24    2    5    5    0    0 -0.38077216867E+02  0.64987654609E+01  0.45153486614E+02  0.10060642283E+03  0.81183166757E+02 0.  0.
          4    1    6    6  501    0 -0.41023469484E+02 -0.30911216872E+02  0.33453404361E+02  0.61298928542E+02  0.00000000000E+00 0. -1.
         -3    1    6    6    0  501  0.29462526164E+01  0.37409982333E+02  0.11700082253E+02  0.39307494290E+02  0.00000000000E+00 0.  1.
          5    1    5    5  502    0  0.57478362357E+02  0.75124933909E+02 -0.57815730665E+01  0.94884321261E+02  0.47000000000E+01 0. -1.
         13    1    4    4    0    0  0.16694193575E+02 -0.27535365545E+02 -0.15016835098E+02  0.35530237703E+02  0.00000000000E+00 0. -1.
        -14    1    4    4    0    0 -0.57503708033E+02 -0.63681368078E+02 -0.16023286640E+03  0.18175963400E+03  0.00000000000E+00 0.  1.
         -5    1    3    3    0  504  0.21408368968E+02  0.95930342541E+01  0.19347870100E+02  0.30769703370E+02  0.47000000000E+01 0.  1.
<mgrwt>
<rscale>  2 0.19257972E+03</rscale>
<asrwt>0</asrwt>
<pdfrwt beam="1">  1       21 0.25155416E-01 0.19294603E+03</pdfrwt>
<pdfrwt beam="2">  1       21 0.43083095E-01 0.19294603E+03</pdfrwt>
<totfact> 0.77538894E+04</totfact>
</mgrwt>
</event>
<event>
12    1  0.2791583E-001  0.2027520E+03  0.7546771E-02  0.1147743E+00
         21   -1    0    0  502  503  0.00000000000E+00  0.00000000000E+00  0.17229581074E+03  0.17229581074E+03  0.00000000000E+00 0.  1.
         21   -1    0    0  503  504 -0.00000000000E+00 -0.00000000000E+00 -0.24710467764E+03  0.24710467764E+03  0.00000000000E+00 0. -1.
         -6    2    1    2    0  504  0.10252773890E+03 -0.22004958429E+02 -0.79954863741E+02  0.21658322510E+03  0.17181198363E+03 0.  0.
        -24    2    3    3    0    0  0.12758794741E+03 -0.53631893842E+02 -0.58714651700E+02  0.17074095529E+03  0.80932064901E+02 0.  0.
          6    2    1    2  502    0 -0.10252773890E+03  0.22004958429E+02  0.51459968352E+01  0.20281726328E+03  0.17352868800E+03 0.  0.
         24    2    5    5    0    0 -0.23705969611E+02  0.66224346639E+02  0.25175476577E+02  0.11012694196E+03  0.80910454460E+02 0.  0.
          2    1    6    6  501    0  0.23247378405E+02  0.41808947709E+01 -0.88248605082E+01  0.25215048023E+02  0.00000000000E+00 0. -1.
         -1    1    6    6    0  501 -0.46953348016E+02  0.62043451868E+02  0.34000337085E+02  0.84911893934E+02  0.00000000000E+00 0.  1.
          5    1    5    5  502    0 -0.78821769289E+02 -0.44219388210E+02 -0.20029479742E+02  0.92690321319E+02  0.47000000000E+01 0. -1.
         13    1    4    4    0    0  0.27815452643E+02  0.21716647507E+02 -0.12090549078E+02  0.37302728609E+02  0.00000000000E+00 0. -1.
        -14    1    4    4    0    0  0.99772494763E+02 -0.75348541349E+02 -0.46624102622E+02  0.13343822668E+03  0.00000000000E+00 0.  1.
         -5    1    3    3    0  504 -0.25060208505E+02  0.31626935413E+02 -0.21240212041E+02  0.45842269811E+02  0.47000000000E+01 0.  1.
<mgrwt>
<rscale>  2 0.20238414E+03</rscale>
<asrwt>0</asrwt>
<pdfrwt beam="1">  1       21 0.26507048E-01 0.20275197E+03</pdfrwt>
<pdfrwt beam="2">  1       21 0.38016104E-01 0.20275197E+03</pdfrwt>
<totfact> 0.89976980E+04</totfact>
</mgrwt>
</event>
<event>
12    1  0.2791583E-001  0.2099678E+03  0.7546771E-02  0.1141775E+00
         21   -1    0    0  502  503  0.00000000000E+00  0.00000000000E+00  0.39740477488E+03  0.39740477488E+03  0.00000000000E+00 0.  1.
         21   -1    0    0  503  504 -0.00000000000E+00 -0.00000000000E+00 -0.11066599978E+03  0.11066599978E+03  0.00000000000E+00 0.  1.
         -6    2    1    2    0  504  0.23275431851E+01 -0.11914254271E+03  0.13178535282E+03  0.24711665170E+03  0.17175243052E+03 0.  0.
        -24    2    3    3    0    0  0.54707954056E+02 -0.66989770920E+02  0.32627007684E+02  0.12335039435E+03  0.81671344494E+02 0.  0.
          6    2    1    2  502    0 -0.23275431851E+01  0.11914254271E+03  0.15495342227E+03  0.26095412295E+03  0.17287604886E+03 0.  0.
         24    2    5    5    0    0  0.55345027941E+02  0.11702037691E+03  0.91373251789E+02  0.17495902351E+03  0.74193989215E+02 0.  0.
          4    1    6    6  501    0  0.58715488183E+02  0.55449374230E+02  0.25411445719E+02  0.84663352335E+02  0.00000000000E+00 0. -1.
         -3    1    6    6    0  501 -0.33704602418E+01  0.61571002683E+02  0.65961806069E+02  0.90295671178E+02  0.00000000000E+00 0.  1.
          5    1    5    5  502    0 -0.57672571126E+02  0.21221657954E+01  0.63580170486E+02  0.85995099436E+02  0.47000000000E+01 0. -1.
         13    1    4    4    0    0  0.22195640829E+01  0.18230857001E+02  0.92739290948E+01  0.20574167603E+02  0.00000000000E+00 0. -1.
        -14    1    4    4    0    0  0.52488389973E+02 -0.85220627921E+02  0.23353078589E+02  0.10277622675E+03  0.00000000000E+00 0.  1.
         -5    1    3    3    0  504 -0.52380410871E+02 -0.52152771788E+02  0.99158345139E+02  0.12376625735E+03  0.47000000000E+01 0.  1.
<mgrwt>
<rscale>  2 0.20973641E+03</rscale>
<asrwt>0</asrwt>
<pdfrwt beam="1">  1       21 0.61139196E-01 0.20996783E+03</pdfrwt>
<pdfrwt beam="2">  1       21 0.17025539E-01 0.20996783E+03</pdfrwt>
<totfact> 0.76836102E+04</totfact>
</mgrwt>
</event>
<event>
12    1  0.2791583E-001  0.1920298E+03  0.7546771E-02  0.1157093E+00
         21   -1    0    0  502  503  0.00000000000E+00  0.00000000000E+00  0.54222173641E+02  0.54222173641E+02  0.00000000000E+00 0.  1.
         21   -1    0    0  503  504 -0.00000000000E+00 -0.00000000000E+00 -0.91636862495E+03  0.91636862495E+03  0.00000000000E+00 0.  1.
         -6    2    1    2    0  504  0.76152699628E+02  0.92836941572E+01 -0.67951198342E+03  0.70557986244E+03  0.17384184201E+03 0.  0.
        -24    2    3    3    0    0  0.89221392006E+02  0.20585534670E+01 -0.67877149164E+03  0.68990722046E+03  0.85302640912E+02 0.  0.
          6    2    1    2  502    0 -0.76152699628E+02 -0.92836941572E+01 -0.18263446788E+03  0.26501093615E+03  0.17603984430E+03 0.  0.
         24    2    5    5    0    0  0.22031656364E+02 -0.15328477717E+02 -0.12168948870E+03  0.14919605084E+03  0.82041293360E+02 0.  0.
          2    1    6    6  501    0  0.36938398246E+02  0.20367887901E+02 -0.89229864461E+02  0.98697846148E+02  0.00000000000E+00 0. -1.
         -1    1    6    6    0  501 -0.14906741882E+02 -0.35696365618E+02 -0.32459624239E+02  0.50498204696E+02  0.00000000000E+00 0.  1.
          5    1    5    5  502    0 -0.98184355992E+02  0.60447835594E+01 -0.60944979184E+02  0.11581488530E+03  0.47000000000E+01 0. -1.
         13    1    4    4    0    0  0.17431679468E+02 -0.70188170362E+01 -0.21051502116E+02  0.28218663735E+02  0.00000000000E+00 0. -1.
        -14    1    4    4    0    0  0.71789712538E+02  0.90773705032E+01 -0.65771998953E+03  0.66168855673E+03  0.00000000000E+00 0.  1.
         -5    1    3    3    0  504 -0.13068692378E+02  0.72251406902E+01 -0.74049177708E+00  0.15672641977E+02  0.47000000000E+01 0.  1.
<mgrwt>
<rscale>  2 0.19152458E+03</rscale>
<asrwt>0</asrwt>
<pdfrwt beam="1">  1       21 0.83418727E-02 0.19202981E+03</pdfrwt>
<pdfrwt beam="2">  1       21 0.14097979E+00 0.19202981E+03</pdfrwt>
<totfact> 0.39221610E+04</totfact>
</mgrwt>
</event>
<event>
12    1  0.2791583E-001  0.1799956E+03  0.7546771E-02  0.1168134E+00
         21   -1    0    0  502  503  0.00000000000E+00  0.00000000000E+00  0.13458195323E+04  0.13458195323E+04  0.00000000000E+00 0. -1.
         21   -1    0    0  503  504 -0.00000000000E+00 -0.00000000000E+00 -0.35441744192E+02  0.35441744192E+02  0.00000000000E+00 0. -1.
         -6    2    1    2    0  504 -0.30768424071E+02 -0.35478002303E+02  0.25930953329E+03  0.31489224912E+03  0.17236678895E+03 0.  0.
        -24    2    3    3    0    0 -0.10493021165E+02  0.37666560320E+02  0.76036611630E+02  0.11646777276E+03  0.79084148374E+02 0.  0.
          6    2    1    2  502    0  0.30768424071E+02  0.35478002303E+02  0.10510682548E+04  0.10663690274E+04  0.17376145052E+03 0.  0.
         24    2    5    5    0    0  0.52428035788E+02 -0.74958353152E+01  0.94442799746E+03  0.94927878872E+03  0.79881724057E+02 0.  0.
          2    1    6    6  501    0 -0.61178901570E+01 -0.89088656936E+01  0.58587603412E+03  0.58597570242E+03  0.00000000000E+00 0. -1.
         -1    1    6    6    0  501  0.58545925945E+02  0.14130303784E+01  0.35855196334E+03  0.36330308630E+03  0.00000000000E+00 0.  1.
          5    1    5    5  502    0 -0.21659611717E+02  0.42973837618E+02  0.10664025737E+03  0.11709023866E+03  0.47000000000E+01 0. -1.
         11    1    4    4    0    0  0.24739251227E+02 -0.48773537157E+01  0.37517133457E+01  0.25493028136E+02  0.00000000000E+00 0. -1.
        -12    1    4    4    0    0 -0.35232272392E+02  0.42543914036E+02  0.72284898284E+02  0.90974744624E+02  0.00000000000E+00 0.  1.
         -5    1    3    3    0  504 -0.20275402906E+02 -0.73144562623E+02  0.18327292166E+03  0.19842447636E+03  0.47000000000E+01 0.  1.
<mgrwt>
<rscale>  2 0.17965818E+03</rscale>
<asrwt>0</asrwt>
<pdfrwt beam="1">  1       21 0.20704912E+00 0.17999563E+03</pdfrwt>
<pdfrwt beam="2">  1       21 0.54525770E-02 0.17999563E+03</pdfrwt>
<totfact> 0.28381320E+04</totfact>
</mgrwt>
</event>
<event>
12    1  0.2791583E-001  0.3641755E+03  0.7546771E-02  0.1056977E+00
         21   -1    0    0  502  503  0.00000000000E+00  0.00000000000E+00  0.16981564355E+04  0.16981564355E+04  0.00000000000E+00 0. -1.
         21   -1    0    0  503  504 -0.00000000000E+00 -0.00000000000E+00 -0.98389981894E+02  0.98389981894E+02  0.00000000000E+00 0.  1.
         -6    2    1    2    0  504 -0.24987959730E+03  0.19987604893E+03  0.39087539760E+03  0.53399290941E+03  0.17313174975E+03 0.  0.
        -24    2    3    3    0    0 -0.11821149448E+03  0.25052359392E+02  0.15010764239E+03  0.20858391496E+03  0.79833371072E+02 0.  0.
          6    2    1    2  502    0  0.24987959730E+03 -0.19987604893E+03  0.12088910560E+04  0.12625535080E+04  0.17387790873E+03 0.  0.
         24    2    5    5    0    0  0.23630843982E+03 -0.12832937353E+03  0.81429396778E+03  0.86126551275E+03  0.79959431339E+02 0.  0.
          4    1    6    6  501    0  0.95897670290E+02 -0.67354907365E+02  0.47149627099E+03  0.48584131182E+03  0.00000000000E+00 0. -1.
         -3    1    6    6    0  501  0.14041076953E+03 -0.60974466166E+02  0.34279769679E+03  0.37542420093E+03  0.00000000000E+00 0.  1.
          5    1    5    5  502    0  0.13571157479E+02 -0.71546675395E+02  0.39459708822E+03  0.40128799522E+03  0.47000000000E+01 0. -1.
         13    1    4    4    0    0 -0.49281717480E+02 -0.16938997908E+02  0.10221238888E+03  0.11473007351E+03  0.00000000000E+00 0. -1.
        -14    1    4    4    0    0 -0.68929776998E+02  0.41991357300E+02  0.47895253514E+02  0.93853841446E+02  0.00000000000E+00 0.  1.
         -5    1    3    3    0  504 -0.13166810282E+03  0.17482368953E+03  0.24076775521E+03  0.32540899445E+03  0.47000000000E+01 0.  1.
<mgrwt>
<rscale>  2 0.36408652E+03</rscale>
<asrwt>0</asrwt>
<pdfrwt beam="1">  1       21 0.26125481E+00 0.36417547E+03</pdfrwt>
<pdfrwt beam="2">  1       21 0.15136922E-01 0.36417547E+03</pdfrwt>
<totfact> 0.19103235E+03</totfact>
</mgrwt>
</event>
<event>
12    1  0.2791583E-001  0.2372783E+03  0.7546771E-02  0.1121636E+00
         21   -1    0    0  502  503  0.00000000000E+00  0.00000000000E+00  0.73091032803E+02  0.73091032803E+02  0.00000000000E+00 0. -1.
         21   -1    0    0  503  504 -0.00000000000E+00 -0.00000000000E+00 -0.11179019973E+04  0.11179019973E+04  0.00000000000E+00 0. -1.
         -6    2    1    2    0  504  0.16184635479E+03  0.10092509427E+02 -0.85455190191E+03  0.88685572916E+03  0.17308388138E+03 0.  0.
        -24    2    3    3    0    0  0.55778156331E+02 -0.19209426125E+02 -0.19757473742E+03  0.22070998625E+03  0.78720495339E+02 0.  0.
          6    2    1    2  502    0 -0.16184635479E+03 -0.10092509427E+02 -0.19025906259E+03  0.30413730094E+03  0.17321918375E+03 0.  0.
         24    2    5    5    0    0 -0.26063249695E+02  0.14856840429E+02 -0.27875269618E+02  0.90946991804E+02  0.81205332151E+02 0.  0.
          4    1    6    6  501    0 -0.18598774448E+02  0.13795073142E+02 -0.56650463581E+02  0.61200436909E+02  0.00000000000E+00 0. -1.
         -3    1    6    6    0  501 -0.74644752472E+01  0.10617672876E+01  0.28775193963E+02  0.29746554895E+02  0.00000000000E+00 0.  1.
          5    1    5    5  502    0 -0.13578310510E+03 -0.24949349856E+02 -0.16238379298E+03  0.21319030914E+03  0.47000000000E+01 0. -1.
         13    1    4    4    0    0  0.44990958922E+01  0.27565084314E+02 -0.72050747908E+02  0.77274743682E+02  0.00000000000E+00 0. -1.
        -14    1    4    4    0    0  0.51279060438E+02 -0.46774510439E+02 -0.12552398952E+03  0.14343524257E+03  0.00000000000E+00 0.  1.
         -5    1    3    3    0  504  0.10606819846E+03  0.29301935552E+02 -0.65697716448E+03  0.66614574291E+03  0.47000000000E+01 0.  1.
<mgrwt>
<rscale>  2 0.23725360E+03</rscale>
<asrwt>0</asrwt>
<pdfrwt beam="1">  1       21 0.11244775E-01 0.23727829E+03</pdfrwt>
<pdfrwt beam="2">  1       21 0.17198492E+00 0.23727829E+03</pdfrwt>
<totfact> 0.13197349E+04</totfact>
</mgrwt>
</event>
<event>
12    1  0.2791583E-001  0.1996373E+03  0.7546771E-02  0.1150954E+00
         21   -1    0    0  502  503  0.00000000000E+00  0.00000000000E+00  0.10019369072E+03  0.10019369072E+03  0.00000000000E+00 0.  1.
         21   -1    0    0  503  504 -0.00000000000E+00 -0.00000000000E+00 -0.39718263932E+03  0.39718263932E+03  0.00000000000E+00 0. -1.
         -6    2    1    2    0  504  0.44850424211E+02 -0.84056895771E+02 -0.18182026129E+03  0.26690102519E+03  0.17058847426E+03 0.  0.
        -24    2    3    3    0    0  0.55809944377E+02 -0.94043925211E+01 -0.16057383433E+03  0.18837327224E+03  0.80606084970E+02 0.  0.
          6    2    1    2  502    0 -0.44850424211E+02  0.84056895771E+02 -0.11516868731E+03  0.23047530486E+03  0.17543636263E+03 0.  0.
         24    2    5    5    0    0 -0.35440268439E+02  0.26968490413E+02  0.72546156311E+01  0.94986588869E+02  0.83585348685E+02 0.  0.
          4    1    6    6  501    0 -0.38571203348E+02 -0.56138411572E+01  0.34764888211E+02  0.52228827218E+02  0.00000000000E+00 0. -1.
         -3    1    6    6    0  501  0.31309349095E+01  0.32582331570E+02 -0.27510272580E+02  0.42757761650E+02  0.00000000000E+00 0.  1.
          5    1    5    5  502    0 -0.94101557723E+01  0.57088405359E+02 -0.12242330294E+03  0.13548871599E+03  0.47000000000E+01 0. -1.
         13    1    4    4    0    0  0.13479585289E+02 -0.25374607592E+02 -0.13148094938E+03  0.13458383997E+03  0.00000000000E+00 0. -1.
        -14    1    4    4    0    0  0.42330359088E+02  0.15970215071E+02 -0.29092884947E+02  0.53789432275E+02  0.00000000000E+00 0.  1.
         -5    1    3    3    0  504 -0.10959520166E+02 -0.74652503250E+02 -0.21246426967E+02  0.78527752945E+02  0.47000000000E+01 0.  1.
<mgrwt>
<rscale>  2 0.19856707E+03</rscale>
<asrwt>0</asrwt>
<pdfrwt beam="1">  1       21 0.15414414E-01 0.19963727E+03</pdfrwt>
<pdfrwt beam="2">  1       21 0.61105019E-01 0.19963727E+03</pdfrwt>
<totfact> 0.92728748E+04</totfact>
</mgrwt>
</event>
<event>
12    1  0.2791583E-001  0.2188342E+03  0.7546771E-02  0.1134835E+00
         21   -1    0    0  502  503  0.00000000000E+00  0.00000000000E+00  0.26847794963E+03  0.26847794963E+03  0.00000000000E+00 0.  1.
         21   -1    0    0  503  504 -0.00000000000E+00 -0.00000000000E+00 -0.22343754366E+03  0.22343754366E+03  0.00000000000E+00 0. -1.
         -6    2    1    2    0  504 -0.12600798142E+03 -0.40286332421E+02 -0.88381568378E+02  0.23561519402E+03  0.17378785362E+03 0.  0.
        -24    2    3    3    0    0  0.39477976978E+01 -0.34226064108E+02 -0.49909452353E+02  0.99867541784E+02  0.79344589587E+02 0.  0.
          6    2    1    2  502    0  0.12600798142E+03  0.40286332421E+02  0.13342197435E+03  0.25630029927E+03  0.17431987897E+03 0.  0.
         24    2    5    5    0    0  0.36661027706E+02  0.54504598029E+02  0.10467008711E+02  0.10357488950E+03  0.79394063408E+02 0.  0.
          2    1    6    6  501    0  0.56164611371E+02  0.14996318657E+02 -0.64249534312E+00  0.58135754437E+02  0.00000000000E+00 0. -1.
         -1    1    6    6    0  501 -0.19503583665E+02  0.39508279372E+02  0.11109504054E+02  0.45439135060E+02  0.00000000000E+00 0.  1.
          5    1    5    5  502    0  0.89346953710E+02 -0.14218265609E+02  0.12295496564E+03  0.15272540977E+03  0.47000000000E+01 0. -1.
         11    1    4    4    0    0 -0.31688564223E+02 -0.30212631002E+02 -0.46461163130E+02  0.63840487577E+02  0.00000000000E+00 0. -1.
        -12    1    4    4    0    0  0.35636361921E+02 -0.40134331060E+01 -0.34482892227E+01  0.36027054207E+02  0.00000000000E+00 0.  1.
         -5    1    3    3    0  504 -0.12995577911E+03 -0.60602683122E+01 -0.38472116025E+02  0.13574765224E+03  0.47000000000E+01 0.  1.
<mgrwt>
<rscale>  2 0.21872826E+03</rscale>
<asrwt>0</asrwt>
<pdfrwt beam="1">  1       21 0.41304300E-01 0.21883423E+03</pdfrwt>
<pdfrwt beam="2">  1       21 0.34375007E-01 0.21883423E+03</pdfrwt>
<totfact> 0.45453391E+04</totfact>
</mgrwt>
</event>
<event>
12    1  0.2791583E-001  0.2163005E+03  0.7546771E-02  0.1137033E+00
         21   -1    0    0  502  503  0.00000000000E+00  0.00000000000E+00  0.14054644910E+03  0.14054644910E+03  0.00000000000E+00 0. -1.
         21   -1    0    0  503  504 -0.00000000000E+00 -0.00000000000E+00 -0.48853108657E+03  0.48853108657E+03  0.00000000000E+00 0.  1.
         -6    2    1    2    0  504 -0.68397901925E+02  0.10530926490E+03 -0.35369454880E+03  0.41459107416E+03  0.17611817244E+03 0.  0.
        -24    2    3    3    0    0 -0.45892536025E+02  0.14305977239E+03 -0.27450519643E+03  0.32390129614E+03  0.83586622352E+02 0.  0.
          6    2    1    2  502    0  0.68397901925E+02 -0.10530926490E+03  0.57099113275E+01  0.21448646151E+03  0.17379161321E+03 0.  0.
         24    2    5    5    0    0  0.21829768210E+02 -0.53119983307E+02 -0.63709299818E+02  0.11582831908E+03  0.77839920424E+02 0.  0.
          4    1    6    6  501    0 -0.19203233079E+02 -0.56850805922E+01  0.70884155035E+01  0.21244527210E+02  0.00000000000E+00 0. -1.
         -3    1    6    6    0  501  0.41033001289E+02 -0.47434902715E+02 -0.70797715322E+02  0.94583791873E+02  0.00000000000E+00 0.  1.
          5    1    5    5  502    0  0.46568133715E+02 -0.52189281597E+02  0.69419211146E+02  0.98658142428E+02  0.47000000000E+01 0. -1.
         13    1    4    4    0    0 -0.11033120208E+02  0.63980708147E+02 -0.45914950302E+02  0.79520081852E+02  0.00000000000E+00 0. -1.
        -14    1    4    4    0    0 -0.34859415817E+02  0.79079064240E+02 -0.22859024613E+03  0.24438121429E+03  0.00000000000E+00 0.  1.
         -5    1    3    3    0  504 -0.22505365901E+02 -0.37750507483E+02 -0.79189352366E+02  0.90689778022E+02  0.47000000000E+01 0.  1.
<mgrwt>
<rscale>  2 0.21582646E+03</rscale>
<asrwt>0</asrwt>
<pdfrwt beam="1">  1       21 0.21622531E-01 0.21630054E+03</pdfrwt>
<pdfrwt beam="2">  1       21 0.75158627E-01 0.21630054E+03</pdfrwt>
<totfact> 0.31156732E+04</totfact>
</mgrwt>
</event>
<event>
12    1  0.2791583E-001  0.2086476E+03  0.7546771E-02  0.1143390E+00
         21   -1    0    0  502  503  0.00000000000E+00  0.00000000000E+00  0.24270341582E+03  0.24270341582E+03  0.00000000000E+00 0.  1.
         21   -1    0    0  503  504 -0.00000000000E+00 -0.00000000000E+00 -0.18184121301E+03  0.18184121301E+03  0.00000000000E+00 0.  1.
         -6    2    1    2    0  504 -0.30380505831E+02  0.10255188278E+03 -0.72475268529E+01  0.20506174075E+03  0.17480825803E+03 0.  0.
        -24    2    3    3    0    0  0.96330430182E+01 -0.13273684292E+02 -0.75003419186E+01  0.82428955594E+02  0.80431905230E+02 0.  0.
          6    2    1    2  502    0  0.30380505831E+02 -0.10255188278E+03  0.68109729660E+02  0.21948288809E+03  0.17914781353E+03 0.  0.
         24    2    5    5    0    0 -0.44530003558E+02 -0.55844033607E+02  0.76005572587E+02  0.13072680701E+03  0.78810999877E+02 0.  0.
          4    1    6    6  501    0 -0.57862150041E+02 -0.24873972590E+02  0.21340370370E+02  0.66499280652E+02  0.00000000000E+00 0. -1.
         -3    1    6    6    0  501  0.13332146483E+02 -0.30970061016E+02  0.54665202217E+02  0.64227526362E+02  0.00000000000E+00 0.  1.
          5    1    5    5  502    0  0.74910509389E+02 -0.46707849176E+02 -0.78958429267E+01  0.88756081071E+02  0.47000000000E+01 0. -1.
         13    1    4    4    0    0  0.38864651679E+02 -0.46007360134E+01  0.17623028189E+02  0.42920846271E+02  0.00000000000E+00 0. -1.
        -14    1    4    4    0    0 -0.29231608661E+02 -0.86729482784E+01 -0.25123370108E+02  0.39508109324E+02  0.00000000000E+00 0.  1.
         -5    1    3    3    0  504 -0.40013548849E+02  0.11582556707E+03  0.25281506564E+00  0.12263278516E+03  0.47000000000E+01 0.  1.
<mgrwt>
<rscale>  2 0.20771281E+03</rscale>
<asrwt>0</asrwt>
<pdfrwt beam="1">  1       21 0.37338987E-01 0.20864756E+03</pdfrwt>
<pdfrwt beam="2">  1       21 0.27975571E-01 0.20864756E+03</pdfrwt>
<totfact> 0.83855487E+04</totfact>
</mgrwt>
</event>
<event>
12    1  0.2791583E-001  0.2878650E+03  0.7546771E-02  0.1091574E+00
         21   -1    0    0  502  503  0.00000000000E+00  0.00000000000E+00  0.53309456412E+03  0.53309456412E+03  0.00000000000E+00 0.  1.
         21   -1    0    0  503  504 -0.00000000000E+00 -0.00000000000E+00 -0.55537962386E+03  0.55537962386E+03  0.00000000000E+00 0.  1.
         -6    2    1    2    0  504  0.71256149335E+02  0.21759186952E+03 -0.47323156125E+03  0.55390825364E+03  0.17447802838E+03 0.  0.
        -24    2    3    3    0    0  0.11566023810E+02  0.96437972838E+02 -0.11370295940E+03  0.16981961372E+03  0.80475354711E+02 0.  0.
          6    2    1    2  502    0 -0.71256149335E+02 -0.21759186952E+03  0.45094650151E+03  0.53456593434E+03  0.17315984073E+03 0.  0.
         24    2    5    5    0    0 -0.48156057575E+02 -0.23578183254E+03  0.37795446549E+03  0.45573436506E+03  0.83259564484E+02 0.  0.
          4    1    6    6  501    0 -0.53713795795E+02 -0.22048606486E+03  0.30035681850E+03  0.37644852912E+03  0.00000000000E+00 0. -1.
         -3    1    6    6    0  501  0.55577382198E+01 -0.15295767679E+02  0.77597646986E+02  0.79285835940E+02  0.00000000000E+00 0.  1.
          5    1    5    5  502    0 -0.23100091760E+02  0.18189963016E+02  0.72992036019E+02  0.78831569285E+02  0.47000000000E+01 0. -1.
         13    1    4    4    0    0  0.12639158081E+02 -0.11152235074E+02 -0.26107526620E+02  0.31076093872E+02  0.00000000000E+00 0. -1.
        -14    1    4    4    0    0 -0.10731342704E+01  0.10759020791E+03 -0.87595432778E+02  0.13874351985E+03  0.00000000000E+00 0.  1.
         -5    1    3    3    0  504  0.59690125525E+02  0.12115389668E+03 -0.35952860185E+03  0.38408863992E+03  0.47000000000E+01 0.  1.
<mgrwt>
<rscale>  2 0.28766550E+03</rscale>
<asrwt>0</asrwt>
<pdfrwt beam="1">  1       21 0.82014548E-01 0.28786497E+03</pdfrwt>
<pdfrwt beam="2">  1       21 0.85443019E-01 0.28786497E+03</pdfrwt>
<totfact> 0.14283112E+03</totfact>
</mgrwt>
</event>
<event>
12    1  0.2791583E-001  0.1816560E+03  0.7546771E-02  0.1166289E+00
         21   -1    0    0  502  503  0.00000000000E+00  0.00000000000E+00  0.18233113447E+03  0.18233113447E+03  0.00000000000E+00 0.  1.
         21   -1    0    0  503  504 -0.00000000000E+00 -0.00000000000E+00 -0.32264891792E+03  0.32264891792E+03  0.00000000000E+00 0.  1.
         -6    2    1    2    0  504 -0.43464038837E+02  0.34138248140E+02 -0.23762318377E+03  0.29890427718E+03  0.17269755874E+03 0.  0.
        -24    2    3    3    0    0  0.23192087280E+02  0.57991932591E+02 -0.18225923449E+03  0.20890819787E+03  0.80766759396E+02 0.  0.
          6    2    1    2  502    0  0.43464038837E+02 -0.34138248140E+02  0.97305400324E+02  0.20607577522E+03  0.17304433403E+03 0.  0.
         24    2    5    5    0    0  0.11992135155E+02 -0.90398391037E+02  0.65345590334E+02  0.13397027019E+03  0.73227772813E+02 0.  0.
          4    1    6    6  501    0 -0.21507223339E+02 -0.23061343710E+02 -0.38547799148E+01  0.31768625366E+02  0.00000000000E+00 0. -1.
         -3    1    6    6    0  501  0.33499358494E+02 -0.67337047327E+02  0.69200370249E+02  0.10220164482E+03  0.00000000000E+00 0.  1.
          5    1    5    5  502    0  0.31471903682E+02  0.56260142898E+02  0.31959809990E+02  0.72105505025E+02  0.47000000000E+01 0. -1.
         11    1    4    4    0    0  0.25803547102E+02 -0.12964835151E+02 -0.34625702748E+02  0.45087129919E+02  0.00000000000E+00 0. -1.
        -12    1    4    4    0    0 -0.26114598216E+01  0.70956767742E+02 -0.14763353174E+03  0.16382106795E+03  0.00000000000E+00 0.  1.
         -5    1    3    3    0  504 -0.66656126118E+02 -0.23853684452E+02 -0.55363949284E+02  0.89996079311E+02  0.47000000000E+01 0.  1.
<mgrwt>
<rscale>  2 0.18157332E+03</rscale>
<asrwt>0</asrwt>
<pdfrwt beam="1">  1       21 0.28050944E-01 0.18165595E+03</pdfrwt>
<pdfrwt beam="2">  1       21 0.49638295E-01 0.18165595E+03</pdfrwt>
<totfact> 0.47214031E+04</totfact>
</mgrwt>
</event>
<event>
12    1  0.2791583E-001  0.2205856E+03  0.7546771E-02  0.1134121E+00
         21   -1    0    0  502  503  0.00000000000E+00  0.00000000000E+00  0.32663754452E+03  0.32663754452E+03  0.00000000000E+00 0.  1.
         21   -1    0    0  503  504 -0.00000000000E+00 -0.00000000000E+00 -0.15134480093E+03  0.15134480093E+03  0.00000000000E+00 0. -1.
         -6    2    1    2    0  504 -0.91675931978E+02  0.93350632649E+02  0.44395581112E+02  0.22148269431E+03  0.17310343479E+03 0.  0.
        -24    2    3    3    0    0 -0.12101772692E+03  0.69662550954E+02 -0.19962578216E+01  0.16151304478E+03  0.81143806641E+02 0.  0.
          6    2    1    2  502    0  0.91675931978E+02 -0.93350632649E+02  0.13089716247E+03  0.25649965114E+03  0.17759275540E+03 0.  0.
         24    2    5    5    0    0  0.34351766597E+02 -0.83344156732E+02  0.15206331280E+03  0.19440065424E+03  0.80883069551E+02 0.  0.
          4    1    6    6  501    0 -0.14276845066E+02  0.69908681732E+01  0.87330662276E+01  0.18137447135E+02  0.00000000000E+00 0. -1.
         -3    1    6    6    0  501  0.48628611663E+02 -0.90335024905E+02  0.14333024657E+03  0.17626320710E+03  0.00000000000E+00 0.  1.
          5    1    5    5  502    0  0.57324165381E+02 -0.10006475917E+02 -0.21166150323E+02  0.62098996903E+02  0.47000000000E+01 0. -1.
         13    1    4    4    0    0 -0.16295874756E+01  0.33594909548E+02 -0.13551099300E+02  0.36261629791E+02  0.00000000000E+00 0. -1.
        -14    1    4    4    0    0 -0.11938813944E+03  0.36067641407E+02  0.11554841478E+02  0.12525141499E+03  0.00000000000E+00 0.  1.
         -5    1    3    3    0  504  0.29341794939E+02  0.23688081694E+02  0.46391838934E+02  0.59969649526E+02  0.47000000000E+01 0.  1.
<mgrwt>
<rscale>  2 0.21968054E+03</rscale>
<asrwt>0</asrwt>
<pdfrwt beam="1">  1       21 0.50251930E-01 0.22058559E+03</pdfrwt>
<pdfrwt beam="2">  1       21 0.23283816E-01 0.22058559E+03</pdfrwt>
<totfact> 0.64580434E+04</totfact>
</mgrwt>
</event>
<event>
12    1  0.2791583E-001  0.2421952E+03  0.7546771E-02  0.1118524E+00
         21   -1    0    0  502  503  0.00000000000E+00  0.00000000000E+00  0.55597437635E+03  0.55597437635E+03  0.00000000000E+00 0. -1.
         21   -1    0    0  503  504 -0.00000000000E+00 -0.00000000000E+00 -0.13016790833E+03  0.13016790833E+03  0.00000000000E+00 0. -1.
         -6    2    1    2    0  504 -0.15314401364E+03 -0.71888961723E+02  0.61709443530E+02  0.24884932139E+03  0.17174637582E+03 0.  0.
        -24    2    3    3    0    0 -0.17032929915E+03 -0.24325915039E+02  0.55708290180E+02  0.19770558972E+03  0.79876569289E+02 0.  0.
          6    2    1    2  502    0  0.15314401364E+03  0.71888961723E+02  0.36409702449E+03  0.43729296329E+03  0.17331295615E+03 0.  0.
         24    2    5    5    0    0  0.15293865246E+03  0.71425816134E+02  0.20329932644E+03  0.27642579332E+03  0.81170958195E+02 0.  0.
          4    1    6    6  501    0  0.23671048120E+02 -0.18000828957E+02  0.26216182204E+02  0.39643871803E+02  0.00000000000E+00 0. -1.
         -3    1    6    6    0  501  0.12926760434E+03  0.89426645091E+02  0.17708314423E+03  0.23678192151E+03  0.00000000000E+00 0.  1.
          5    1    5    5  502    0  0.20536117997E+00  0.46314558884E+00  0.16079769805E+03  0.16086716998E+03  0.47000000000E+01 0. -1.
         13    1    4    4    0    0 -0.54330471542E+02 -0.29697115023E+02  0.53076519496E+02  0.81552655999E+02  0.00000000000E+00 0. -1.
        -14    1    4    4    0    0 -0.11599882761E+03  0.53711999840E+01  0.26317706841E+01  0.11615293372E+03  0.00000000000E+00 0.  1.
         -5    1    3    3    0  504  0.17185285511E+02 -0.47563046684E+02  0.60011533499E+01  0.51143731673E+02  0.47000000000E+01 0.  1.
<mgrwt>
<rscale>  2 0.24191503E+03</rscale>
<asrwt>0</asrwt>
<pdfrwt beam="1">  1       21 0.85534518E-01 0.24219515E+03</pdfrwt>
<pdfrwt beam="2">  1       21 0.20025832E-01 0.24219515E+03</pdfrwt>
<totfact> 0.26489068E+04</totfact>
</mgrwt>
</event>
<event>
12    1  0.2791583E-001  0.2450307E+03  0.7546771E-02  0.1116634E+00
         21   -1    0    0  502  503  0.00000000000E+00  0.00000000000E+00  0.11468330986E+03  0.11468330986E+03  0.00000000000E+00 0.  1.
         21   -1    0    0  503  504 -0.00000000000E+00 -0.00000000000E+00 -0.65072271229E+03  0.65072271229E+03  0.00000000000E+00 0. -1.
         -6    2    1    2    0  504  0.66935720254E+02  0.16101989472E+03 -0.43890039997E+03  0.50266647985E+03  0.17214015140E+03 0.  0.
        -24    2    3    3    0    0  0.89562966519E+02  0.10743931753E+03 -0.24259868194E+03  0.29787554980E+03  0.10154304884E+03 0.  0.
          6    2    1    2  502    0 -0.66935720254E+02 -0.16101989472E+03 -0.97139002462E+02  0.26273954231E+03  0.17084579056E+03 0.  0.
         24    2    5    5    0    0  0.28988369708E+01 -0.14640687160E+03 -0.94469315222E+02  0.19118800104E+03  0.78644929374E+02 0.  0.
          4    1    6    6  501    0  0.34950089186E+02 -0.47591061637E+02 -0.52963923502E+02  0.79319575608E+02  0.00000000000E+00 0. -1.
         -3    1    6    6    0  501 -0.32051252216E+02 -0.98815809961E+02 -0.41505391720E+02  0.11186842543E+03  0.00000000000E+00 0.  1.
          5    1    5    5  502    0 -0.69834557224E+02 -0.14613023119E+02 -0.26696872400E+01  0.71551541265E+02  0.47000000000E+01 0. -1.
         11    1    4    4    0    0  0.79577521144E+02  0.66527061778E+02 -0.23247229754E+03  0.25456197859E+03  0.00000000000E+00 0. -1.
        -12    1    4    4    0    0  0.99854453754E+01  0.40912255754E+02 -0.10126384402E+02  0.43313571213E+02  0.00000000000E+00 0.  1.
         -5    1    3    3    0  504 -0.22627246266E+02  0.53580577186E+02 -0.19630171804E+03  0.20479093005E+03  0.47000000000E+01 0.  1.
<mgrwt>
<rscale>  2 0.24480346E+03</rscale>
<asrwt>0</asrwt>
<pdfrwt beam="1">  1       21 0.17643586E-01 0.24503067E+03</pdfrwt>
<pdfrwt beam="2">  1       21 0.10011119E+00 0.24503067E+03</pdfrwt>
<totfact> 0.23171107E+04</totfact>
</mgrwt>
</event>
<event>
12    1  0.2791583E-001  0.2481937E+03  0.7546771E-02  0.1114721E+00
         21   -1    0    0  502  503  0.00000000000E+00  0.00000000000E+00  0.11111682527E+03  0.11111682527E+03  0.00000000000E+00 0.  1.
         21   -1    0    0  503  504 -0.00000000000E+00 -0.00000000000E+00 -0.85943254781E+03  0.85943254781E+03  0.00000000000E+00 0. -1.
         -6    2    1    2    0  504  0.17656990383E+03  0.19189485234E+02 -0.66423287105E+03  0.70849966588E+03  0.17094239463E+03 0.  0.
        -24    2    3    3    0    0  0.17946685734E+03  0.48228540636E+02 -0.63633525881E+03  0.66785454505E+03  0.81072724918E+02 0.  0.
          6    2    1    2  502    0 -0.17656990383E+03 -0.19189485234E+02 -0.84082851487E+02  0.26204970720E+03  0.17336365203E+03 0.  0.
         24    2    5    5    0    0 -0.50959851048E+02 -0.62745379079E+02 -0.29201991896E+02  0.11814348774E+03  0.81063175056E+02 0.  0.
          4    1    6    6  501    0  0.79891464371E+01 -0.54225632434E+02 -0.11466624575E+02  0.55997581669E+02  0.00000000000E+00 0. -1.
         -3    1    6    6    0  501 -0.58948997485E+02 -0.85197466449E+01 -0.17735367321E+02  0.62145906071E+02  0.00000000000E+00 0.  1.
          5    1    5    5  502    0 -0.12561005279E+03  0.43555893845E+02 -0.54880859591E+02  0.14390621946E+03  0.47000000000E+01 0. -1.
         13    1    4    4    0    0  0.14653212878E+03  0.10490184239E+02 -0.39639468101E+03  0.42274158994E+03  0.00000000000E+00 0. -1.
        -14    1    4    4    0    0  0.32934728553E+02  0.37738356397E+02 -0.23994057780E+03  0.24511295511E+03  0.00000000000E+00 0.  1.
         -5    1    3    3    0  504 -0.28969535026E+01 -0.29039055402E+02 -0.27897612235E+02  0.40645120822E+02  0.47000000000E+01 0.  1.
<mgrwt>
<rscale>  2 0.24777135E+03</rscale>
<asrwt>0</asrwt>
<pdfrwt beam="1">  1       21 0.17094896E-01 0.24819372E+03</pdfrwt>
<pdfrwt beam="2">  1       21 0.13222039E+00 0.24819372E+03</pdfrwt>
<totfact> 0.12338812E+04</totfact>
</mgrwt>
</event>
<event>
12    1  0.2791583E-001  0.2108316E+03  0.7546771E-02  0.1141087E+00
         21   -1    0    0  502  503  0.00000000000E+00  0.00000000000E+00  0.38821337783E+03  0.38821337783E+03  0.00000000000E+00 0. -1.
         21   -1    0    0  503  504 -0.00000000000E+00 -0.00000000000E+00 -0.12722598849E+03  0.12722598849E+03  0.00000000000E+00 0. -1.
         -6    2    1    2    0  504 -0.82007347595E+02 -0.86945667778E+02  0.47684255938E+02  0.21615682153E+03  0.17368140092E+03 0.  0.
        -24    2    3    3    0    0 -0.60613743904E+02 -0.66937468564E+02  0.99613283403E+02  0.15635106756E+03  0.79800999051E+02 0.  0.
          6    2    1    2  502    0  0.82007347595E+02  0.86945667778E+02  0.21330313340E+03  0.29928254478E+03  0.17258928324E+03 0.  0.
         24    2    5    5    0    0  0.52667658866E+02  0.11735596177E+03  0.10894790859E+03  0.18659844537E+03  0.80018928849E+02 0.  0.
          4    1    6    6  501    0 -0.18376246052E+02  0.50927250015E+02  0.35953621962E+02  0.64991800600E+02  0.00000000000E+00 0. -1.
         -3    1    6    6    0  501  0.71043904918E+02  0.66428711760E+02  0.72994286626E+02  0.12160664477E+03  0.00000000000E+00 0.  1.
          5    1    5    5  502    0  0.29339688729E+02 -0.30410293997E+02  0.10435522481E+03  0.11268409941E+03  0.47000000000E+01 0. -1.
         13    1    4    4    0    0 -0.42054585682E+02 -0.47276088121E+01  0.64626319186E+01  0.42810093124E+02  0.00000000000E+00 0. -1.
        -14    1    4    4    0    0 -0.18559158222E+02 -0.62209859751E+02  0.93150651485E+02  0.11354097444E+03  0.00000000000E+00 0.  1.
         -5    1    3    3    0  504 -0.21393603691E+02 -0.20008199214E+02 -0.51929027465E+02  0.59805753972E+02  0.47000000000E+01 0.  1.
<mgrwt>
<rscale>  2 0.21060660E+03</rscale>
<asrwt>0</asrwt>
<pdfrwt beam="1">  1       21 0.59725135E-01 0.21083165E+03</pdfrwt>
<pdfrwt beam="2">  1       21 0.19573229E-01 0.21083165E+03</pdfrwt>
<totfact> 0.62362889E+04</totfact>
</mgrwt>
</event>
<event>
12    1  0.2791583E-001  0.1745310E+03  0.7546771E-02  0.1174089E+00
         21   -1    0    0  502  503  0.00000000000E+00  0.00000000000E+00  0.22265088857E+03  0.22265088857E+03  0.00000000000E+00 0. -1.
         21   -1    0    0  503  504 -0.00000000000E+00 -0.00000000000E+00 -0.24514452044E+03  0.24514452044E+03  0.00000000000E+00 0. -1.
         -6    2    1    2    0  504  0.26445871642E+01  0.18285180840E+02 -0.16872733670E+03  0.24275500451E+03  0.17355038572E+03 0.  0.
        -24    2    3    3    0    0 -0.65047932989E+02  0.74109982190E+01 -0.81008118622E+02  0.13132217114E+03  0.79981503297E+02 0.  0.
          6    2    1    2  502    0 -0.26445871642E+01 -0.18285180840E+02  0.14623370483E+03  0.22504040450E+03  0.17005159673E+03 0.  0.
         24    2    5    5    0    0  0.53068396573E+02  0.17066579518E+02  0.60528873191E+02  0.11677641380E+03  0.82858092414E+02 0.  0.
          4    1    6    6  501    0  0.58725897357E+02  0.42729560528E+02  0.37022610800E+02  0.81518219275E+02  0.00000000000E+00 0. -1.
         -3    1    6    6    0  501 -0.56575007841E+01 -0.25662981010E+02  0.23506262390E+02  0.35258194523E+02  0.00000000000E+00 0.  1.
          5    1    5    5  502    0 -0.55712983737E+02 -0.35351760358E+02  0.85704831641E+02  0.10826399071E+03  0.47000000000E+01 0. -1.
         11    1    4    4    0    0 -0.33149642704E+02 -0.36242611203E+02 -0.42404884433E+02  0.64889135469E+02  0.00000000000E+00 0. -1.
        -12    1    4    4    0    0 -0.31898290286E+02  0.43653609422E+02 -0.38603234189E+02  0.66433035672E+02  0.00000000000E+00 0.  1.
         -5    1    3    3    0  504  0.67692520154E+02  0.10874182621E+02 -0.87719218074E+02  0.11143283337E+03  0.47000000000E+01 0.  1.
<mgrwt>
<rscale>  2 0.17365476E+03</rscale>
<asrwt>0</asrwt>
<pdfrwt beam="1">  1       21 0.34253983E-01 0.17453102E+03</pdfrwt>
<pdfrwt beam="2">  1       21 0.37714541E-01 0.17453102E+03</pdfrwt>
<totfact> 0.56150314E+04</totfact>
</mgrwt>
</event>
<event>
12    1  0.2791583E-001  0.2265783E+03  0.7546771E-02  0.1129503E+00
         21   -1    0    0  502  503  0.00000000000E+00  0.00000000000E+00  0.89846308809E+02  0.89846308809E+02  0.00000000000E+00 0.  1.
         21   -1    0    0  503  504 -0.00000000000E+00 -0.00000000000E+00 -0.67478349591E+03  0.67478349591E+03  0.00000000000E+00 0.  1.
         -6    2    1    2    0  504  0.10403165953E+03  0.96674310456E+02 -0.44511080141E+03  0.49837965421E+03  0.17346511383E+03 0.  0.
        -24    2    3    3    0    0  0.31128947498E+02 -0.12986962321E+02 -0.12881516658E+03  0.15573491286E+03  0.80761026360E+02 0.  0.
          6    2    1    2  502    0 -0.10403165953E+03 -0.96674310456E+02 -0.13982638569E+03  0.26625015050E+03  0.17654805584E+03 0.  0.
         24    2    5    5    0    0 -0.84362330409E+02 -0.60522140655E+02 -0.17081651538E+03  0.21451679542E+03  0.77841128526E+02 0.  0.
          2    1    6    6  501    0 -0.57842817632E+01 -0.23248633699E+02 -0.98610637049E+02  0.10147913393E+03  0.00000000000E+00 0. -1.
         -1    1    6    6    0  501 -0.78578048645E+02 -0.37273506956E+02 -0.72205878334E+02  0.11303766149E+03  0.00000000000E+00 0.  1.
          5    1    5    5  502    0 -0.19669329118E+02 -0.36152169801E+02  0.30990129693E+02  0.51733355078E+02  0.47000000000E+01 0. -1.
         11    1    4    4    0    0  0.18915745503E+02 -0.22654047555E+02 -0.38039236358E+01  0.29757035027E+02  0.00000000000E+00 0. -1.
        -12    1    4    4    0    0  0.12213201995E+02  0.96670852343E+01 -0.12501124294E+03  0.12597787783E+03  0.00000000000E+00 0.  1.
         -5    1    3    3    0  504  0.72902712028E+02  0.10966127278E+03 -0.31629563483E+03  0.34264474135E+03  0.47000000000E+01 0.  1.
<mgrwt>
<rscale>  2 0.22597744E+03</rscale>
<asrwt>0</asrwt>
<pdfrwt beam="1">  1       21 0.13822510E-01 0.22657830E+03</pdfrwt>
<pdfrwt beam="2">  1       21 0.10381284E+00 0.22657830E+03</pdfrwt>
<totfact> 0.33544841E+04</totfact>
</mgrwt>
</event>
<event>
12    1  0.2791583E-001  0.1884009E+03  0.7546771E-02  0.1160372E+00
         21   -1    0    0  502  503  0.00000000000E+00  0.00000000000E+00  0.60699904026E+02  0.60699904026E+02  0.00000000000E+00 0.  1.
         21   -1    0    0  503  504 -0.00000000000E+00 -0.00000000000E+00 -0.60353272416E+03  0.60353272416E+03  0.00000000000E+00 0.  1.
         -6    2    1    2    0  504 -0.40025347066E+02 -0.60473838801E+02 -0.34039334218E+03  0.38905336581E+03  0.17388438820E+03 0.  0.
        -24    2    3    3    0    0 -0.26356985686E+01  0.23837739033E+02 -0.23230378832E+03  0.24688491071E+03  0.80074492567E+02 0.  0.
          6    2    1    2  502    0  0.40025347066E+02  0.60473838801E+02 -0.20243947796E+03  0.27517926238E+03  0.17170547639E+03 0.  0.
         24    2    5    5    0    0  0.16689586145E+02  0.10731562059E+03 -0.14149748019E+03  0.19471357186E+03  0.78081069788E+02 0.  0.
          2    1    6    6  501    0  0.13818464619E+02  0.37145997513E+02 -0.11152278924E+03  0.11835585163E+03  0.00000000000E+00 0. -1.
         -1    1    6    6    0  501  0.28711215264E+01  0.70169623073E+02 -0.29974690948E+02  0.76357720228E+02  0.00000000000E+00 0.  1.
          5    1    5    5  502    0  0.23335760921E+02 -0.46841781786E+02 -0.60941997776E+02  0.80465690525E+02  0.47000000000E+01 0. -1.
         11    1    4    4    0    0 -0.38009903789E+02 -0.44564314351E+01 -0.10913497625E+03  0.11565057548E+03  0.00000000000E+00 0. -1.
        -12    1    4    4    0    0  0.35374205221E+02  0.28294170468E+02 -0.12316881206E+03  0.13123433523E+03  0.00000000000E+00 0.  1.
         -5    1    3    3    0  504 -0.37389648498E+02 -0.84311577834E+02 -0.10808955386E+03  0.14216845510E+03  0.47000000000E+01 0.  1.
<mgrwt>
<rscale>  2 0.18789658E+03</rscale>
<asrwt>0</asrwt>
<pdfrwt beam="1">  1       21 0.93384468E-02 0.18840089E+03</pdfrwt>
<pdfrwt beam="2">  1       21 0.92851188E-01 0.18840089E+03</pdfrwt>
<totfact> 0.89620568E+04</totfact>
</mgrwt>
</event>
<event>
12    1  0.2791583E-001  0.2530517E+03  0.7546771E-02  0.1111562E+00
         21   -1    0    0  502  503  0.00000000000E+00  0.00000000000E+00  0.32806920943E+03  0.32806920943E+03  0.00000000000E+00 0. -1.
         21   -1    0    0  503  504 -0.00000000000E+00 -0.00000000000E+00 -0.19461915039E+03  0.19461915039E+03  0.00000000000E+00 0.  1.
         -6    2    1    2    0  504 -0.14090260781E+03 -0.11954087264E+03  0.56778883780E+02  0.25827647005E+03  0.17128726812E+03 0.  0.
        -24    2    3    3    0    0 -0.16284138395E+03 -0.13384238408E+03  0.45658498967E+02  0.22943906228E+03  0.78271863838E+02 0.  0.
          6    2    1    2  502    0  0.14090260781E+03  0.11954087264E+03  0.76671175258E+02  0.26441188977E+03  0.17289191196E+03 0.  0.
         24    2    5    5    0    0  0.11514094476E+03  0.57628906514E+02 -0.12553981982E+02  0.15269808796E+03  0.81120746888E+02 0.  0.
          4    1    6    6  501    0  0.68925539927E+02  0.64966479841E+02 -0.34770437687E+02  0.10089775465E+03  0.00000000000E+00 0. -1.
         -3    1    6    6    0  501  0.46215404834E+02 -0.73375733267E+01  0.22216455705E+02  0.51800333303E+02  0.00000000000E+00 0.  1.
          5    1    5    5  502    0  0.25761663047E+02  0.61911966122E+02  0.89225157240E+02  0.11171380182E+03  0.47000000000E+01 0. -1.
         11    1    4    4    0    0 -0.32952141751E+02 -0.67293066640E+02  0.36127452664E+02  0.83182890667E+02  0.00000000000E+00 0. -1.
        -12    1    4    4    0    0 -0.12988924220E+03 -0.66549317439E+02  0.95310463030E+01  0.14625617161E+03  0.00000000000E+00 0.  1.
         -5    1    3    3    0  504  0.21938776145E+02  0.14301511443E+02  0.11120384813E+02  0.28837407767E+02  0.47000000000E+01 0.  1.
<mgrwt>
<rscale>  2 0.25277788E+03</rscale>
<asrwt>0</asrwt>
<pdfrwt beam="1">  1       21 0.50472186E-01 0.25305173E+03</pdfrwt>
<pdfrwt beam="2">  1       21 0.29941408E-01 0.25305173E+03</pdfrwt>
<totfact> 0.38851031E+04</totfact>
</mgrwt>
</event>
<event>
12    1  0.2791583E-001  0.1992002E+03  0.7546771E-02  0.1150816E+00
         21   -1    0    0  502  503  0.00000000000E+00  0.00000000000E+00  0.42173958245E+03  0.42173958245E+03  0.00000000000E+00 0. -1.
         21   -1    0    0  503  504 -0.00000000000E+00 -0.00000000000E+00 -0.25260413002E+03  0.25260413002E+03  0.00000000000E+00 0. -1.
         -6    2    1    2    0  504 -0.55271447401E+02  0.81093543314E+02 -0.18312503687E+03  0.27058359356E+03  0.17334822269E+03 0.  0.
        -24    2    3    3    0    0 -0.48695012747E+02  0.95131922964E+01 -0.17443207602E+03  0.19802566007E+03  0.79535575727E+02 0.  0.
          6    2    1    2  502    0  0.55271447401E+02 -0.81093543314E+02  0.35226048931E+03  0.40376011891E+03  0.17118319319E+03 0.  0.
         24    2    5    5    0    0  0.81319593042E+02 -0.10735814664E+03  0.31752181012E+03  0.35279737653E+03  0.74210788434E+02 0.  0.
          4    1    6    6  501    0  0.83379628843E+02 -0.73706357353E+02  0.28498425493E+03  0.30594250306E+03  0.00000000000E+00 0. -1.
         -3    1    6    6    0  501 -0.20600358010E+01 -0.33651789291E+02  0.32537555188E+02  0.46854873467E+02  0.00000000000E+00 0.  1.
          5    1    5    5  502    0 -0.26048145641E+02  0.26264603331E+02  0.34738679188E+02  0.50962742382E+02  0.47000000000E+01 0. -1.
         13    1    4    4    0    0 -0.22087158772E+02  0.31155343183E+01 -0.16856907403E+03  0.17003847170E+03  0.00000000000E+00 0. -1.
        -14    1    4    4    0    0 -0.26607853975E+02  0.63976579781E+01 -0.58630019917E+01  0.27987188375E+02  0.00000000000E+00 0.  1.
         -5    1    3    3    0  504 -0.65764346540E+01  0.71580351017E+02 -0.86929608516E+01  0.72557933494E+02  0.47000000000E+01 0.  1.
<mgrwt>
<rscale>  2 0.19872819E+03</rscale>
<asrwt>0</asrwt>
<pdfrwt beam="1">  1       21 0.64883013E-01 0.19920016E+03</pdfrwt>
<pdfrwt beam="2">  1       21 0.38862174E-01 0.19920016E+03</pdfrwt>
<totfact> 0.13909999E+04</totfact>
</mgrwt>
</event>
<event>
12    1  0.2791583E-001  0.1756981E+03  0.7546771E-02  0.1172722E+00
         21   -1    0    0  502  503  0.00000000000E+00  0.00000000000E+00  0.45865800632E+02  0.45865800632E+02  0.00000000000E+00 0.  1.
         21   -1    0    0  503  504 -0.00000000000E+00 -0.00000000000E+00 -0.10453926638E+04  0.10453926638E+04  0.00000000000E+00 0.  1.
         -6    2    1    2    0  504 -0.20781540219E+02 -0.17046876178E+02 -0.82744217723E+03  0.84532565011E+03  0.17085792246E+03 0.  0.
        -24    2    3    3    0    0  0.49324536276E+02 -0.12687450513E+02 -0.35181095646E+03  0.36451278139E+03  0.80651952429E+02 0.  0.
          6    2    1    2  502    0  0.20781540219E+02  0.17046876178E+02 -0.17208468597E+03  0.24593281436E+03  0.17362989844E+03 0.  0.
         24    2    5    5    0    0  0.60397320386E+02  0.57933226311E+02 -0.14180398502E+03  0.18127900924E+03  0.75826209224E+02 0.  0.
          4    1    6    6  501    0  0.40146596746E+02  0.75825743159E+02 -0.10432772143E+03  0.13507614895E+03  0.00000000000E+00 0. -1.
         -3    1    6    6    0  501  0.20250723640E+02 -0.17892516848E+02 -0.37476263585E+02  0.46202860295E+02  0.00000000000E+00 0.  1.
          5    1    5    5  502    0 -0.39615780168E+02 -0.40886350133E+02 -0.30280700954E+02  0.64653805114E+02  0.47000000000E+01 0. -1.
         13    1    4    4    0    0  0.79391009665E+01 -0.40619226788E+02 -0.21328189620E+03  0.21726048457E+03  0.00000000000E+00 0. -1.
        -14    1    4    4    0    0  0.41385435310E+02  0.27931776275E+02 -0.13852906027E+03  0.14725229682E+03  0.00000000000E+00 0.  1.
         -5    1    3    3    0  504 -0.70106076495E+02 -0.43594256650E+01 -0.47563122077E+03  0.48081286872E+03  0.47000000000E+01 0.  1.
<mgrwt>
<rscale>  2 0.17500932E+03</rscale>
<asrwt>0</asrwt>
<pdfrwt beam="1">  1       21 0.70562768E-02 0.17569806E+03</pdfrwt>
<pdfrwt beam="2">  1       21 0.16082965E+00 0.17569806E+03</pdfrwt>
<totfact> 0.37421895E+04</totfact>
</mgrwt>
</event>
<event>
12    1  0.2791583E-001  0.4495930E+03  0.7546771E-02  0.1027926E+00
         21   -1    0    0  502  503  0.00000000000E+00  0.00000000000E+00  0.47397331962E+03  0.47397331962E+03  0.00000000000E+00 0. -1.
         21   -1    0    0  503  504 -0.00000000000E+00 -0.00000000000E+00 -0.13294059022E+04  0.13294059022E+04  0.00000000000E+00 0.  1.
         -6    2    1    2    0  504  0.66626673140E+02  0.40844523761E+03 -0.11710961162E+04  0.12540365977E+04  0.17284400321E+03 0.  0.
        -24    2    3    3    0    0  0.10973615753E+02  0.74864042874E+02 -0.28329629072E+03  0.30399223227E+03  0.80183812498E+02 0.  0.
          6    2    1    2  502    0 -0.66626673140E+02 -0.40844523761E+03  0.31566353358E+03  0.54934262410E+03  0.17569071266E+03 0.  0.
         24    2    5    5    0    0 -0.34213822863E+02 -0.10965232432E+03  0.51918909610E+02  0.14945374632E+03  0.80290916114E+02 0.  0.
          4    1    6    6  501    0  0.25103883286E+02 -0.39985510495E+02  0.77236041973E+01  0.47840360234E+02  0.00000000000E+00 0. -1.
         -3    1    6    6    0  501 -0.59317706149E+02 -0.69666813824E+02  0.44195305413E+02  0.10161338609E+03  0.00000000000E+00 0.  1.
          5    1    5    5  502    0 -0.32412850277E+02 -0.29879291329E+03  0.26374462397E+03  0.39988887778E+03  0.47000000000E+01 0. -1.
         11    1    4    4    0    0  0.45387519425E+02  0.36492758302E+02 -0.16414577793E+03  0.17417113636E+03  0.00000000000E+00 0. -1.
        -12    1    4    4    0    0 -0.34413903672E+02  0.38371284572E+02 -0.11915051278E+03  0.12982109590E+03  0.00000000000E+00 0.  1.
         -5    1    3    3    0  504  0.55653057388E+02  0.33358119474E+03 -0.88779982545E+03  0.95004436546E+03  0.47000000000E+01 0.  1.
<mgrwt>
<rscale>  2 0.44931654E+03</rscale>
<asrwt>0</asrwt>
<pdfrwt beam="1">  1       21 0.72918974E-01 0.44959299E+03</pdfrwt>
<pdfrwt beam="2">  1       21 0.20452398E+00 0.44959299E+03</pdfrwt>
<totfact> 0.17116542E+02</totfact>
</mgrwt>
</event>
<event>
12    1  0.2791583E-001  0.2133525E+03  0.7546771E-02  0.1139217E+00
         21   -1    0    0  502  503  0.00000000000E+00  0.00000000000E+00  0.84398743577E+03  0.84398743577E+03  0.00000000000E+00 0.  1.
         21   -1    0    0  503  504 -0.00000000000E+00 -0.00000000000E+00 -0.55698785665E+02  0.55698785665E+02  0.00000000000E+00 0. -1.
         -6    2    1    2    0  504  0.11505555452E+03  0.46622657020E+02  0.30497878114E+03  0.37137977850E+03  0.17175398151E+03 0.  0.
        -24    2    3    3    0    0  0.11038605965E+03  0.62781386428E+02  0.11415553281E+03  0.17975903114E+03  0.56171513765E+02 0.  0.
          6    2    1    2  502    0 -0.11505555452E+03 -0.46622657020E+02  0.48330986897E+03  0.52830644293E+03  0.17351603795E+03 0.  0.
         24    2    5    5    0    0 -0.11110467548E+03  0.11194954483E+02  0.42070236960E+03  0.44286479839E+03  0.81664986035E+02 0.  0.
          2    1    6    6  501    0 -0.53889109348E+02 -0.51958003743E+01  0.32978323641E+03  0.33419756951E+03  0.00000000000E+00 0. -1.
         -1    1    6    6    0  501 -0.57215566128E+02  0.16390754857E+02  0.90919133192E+02  0.10866722888E+03  0.00000000000E+00 0.  1.
          5    1    5    5  502    0 -0.39508790446E+01 -0.57817611503E+02  0.62607499364E+02  0.85441644541E+02  0.47000000000E+01 0. -1.
         13    1    4    4    0    0  0.90542196820E+01  0.18802235612E+02  0.44545641390E+02  0.49191636738E+02  0.00000000000E+00 0. -1.
        -14    1    4    4    0    0  0.10133183996E+03  0.43979150816E+02  0.69609891416E+02  0.13056739440E+03  0.00000000000E+00 0.  1.
         -5    1    3    3    0  504  0.46694948738E+01 -0.16158729408E+02  0.19082324833E+03  0.19162074737E+03  0.47000000000E+01 0.  1.
<mgrwt>
<rscale>  2 0.21299391E+03</rscale>
<asrwt>0</asrwt>
<pdfrwt beam="1">  1       21 0.12984421E+00 0.21335245E+03</pdfrwt>
<pdfrwt beam="2">  1       21 0.85690445E-02 0.21335245E+03</pdfrwt>
<totfact> 0.45634772E+04</totfact>
</mgrwt>
</event>
<event>
12    1  0.2791583E-001  0.2287226E+03  0.7546771E-02  0.1127615E+00
         21   -1    0    0  502  503  0.00000000000E+00  0.00000000000E+00  0.10199863598E+03  0.10199863598E+03  0.00000000000E+00 0.  1.
         21   -1    0    0  503  504 -0.00000000000E+00 -0.00000000000E+00 -0.52414412605E+03  0.52414412605E+03  0.00000000000E+00 0.  1.
         -6    2    1    2    0  504 -0.54476086023E+02 -0.14027723436E+03 -0.25861005727E+03  0.34497046302E+03  0.17169773501E+03 0.  0.
        -24    2    3    3    0    0  0.14861426475E+01 -0.15161648930E+03 -0.19830643181E+03  0.26179013491E+03  0.78859783128E+02 0.  0.
          6    2    1    2  502    0  0.54476086023E+02  0.14027723436E+03 -0.16353543280E+03  0.28117229901E+03  0.17224597970E+03 0.  0.
         24    2    5    5    0    0  0.34467203425E+02  0.10555441821E+02 -0.10629643205E+03  0.13790160400E+03  0.80115638020E+02 0.  0.
          2    1    6    6  501    0  0.34534440752E+02 -0.30022768275E+02 -0.68949520756E+02  0.82752828505E+02  0.00000000000E+00 0. -1.
         -1    1    6    6    0  501 -0.67237327630E-01  0.40578210096E+02 -0.37346911293E+02  0.55148775495E+02  0.00000000000E+00 0.  1.
          5    1    5    5  502    0  0.20008882598E+02  0.12972179254E+03 -0.57239000747E+02  0.14327069501E+03  0.47000000000E+01 0. -1.
         13    1    4    4    0    0 -0.59433140087E+01  0.83581525214E+01 -0.17265712549E+02  0.20081995041E+02  0.00000000000E+00 0. -1.
        -14    1    4    4    0    0  0.74294566562E+01 -0.15997464182E+03 -0.18104071926E+03  0.24170813987E+03  0.00000000000E+00 0.  1.
         -5    1    3    3    0  504 -0.55962228670E+02  0.11339254934E+02 -0.60303625463E+02  0.83180328108E+02  0.47000000000E+01 0.  1.
<mgrwt>
<rscale>  2 0.22861938E+03</rscale>
<asrwt>0</asrwt>
<pdfrwt beam="1">  1       21 0.15692098E-01 0.22872259E+03</pdfrwt>
<pdfrwt beam="2">  1       21 0.80637556E-01 0.22872259E+03</pdfrwt>
<totfact> 0.47966175E+04</totfact>
</mgrwt>
</event>
<event>
12    1  0.2791583E-001  0.2072462E+03  0.7546771E-02  0.1144270E+00
         21   -1    0    0  502  503  0.00000000000E+00  0.00000000000E+00  0.11423102437E+03  0.11423102437E+03  0.00000000000E+00 0.  1.
         21   -1    0    0  503  504 -0.00000000000E+00 -0.00000000000E+00 -0.93078702844E+03  0.93078702844E+03  0.00000000000E+00 0.  1.
         -6    2    1    2    0  504 -0.20432871885E+02 -0.10850404177E+03 -0.81231984846E+03  0.83772859169E+03  0.17243847541E+03 0.  0.
        -24    2    3    3    0    0 -0.24928514131E+02 -0.10950350945E+03 -0.36738142812E+03  0.39274151589E+03  0.81635379455E+02 0.  0.
          6    2    1    2  502    0  0.20432871885E+02  0.10850404177E+03 -0.42361556091E+01  0.20728946113E+03  0.17538627753E+03 0.  0.
         24    2    5    5    0    0 -0.12806306527E+02  0.33235753197E+02  0.57607439330E+02  0.10425122317E+03  0.79253288189E+02 0.  0.
          4    1    6    6  501    0  0.22004748074E+02  0.35488887835E+02  0.55295031875E+02  0.69290768848E+02  0.00000000000E+00 0. -1.
         -3    1    6    6    0  501 -0.34811054600E+02 -0.22531346379E+01  0.23124074550E+01  0.34960454321E+02  0.00000000000E+00 0.  1.
          5    1    5    5  502    0  0.33239178411E+02  0.75268288574E+02 -0.61843594939E+02  0.10303823796E+03  0.47000000000E+01 0. -1.
         11    1    4    4    0    0 -0.21087652527E+02  0.65659406748E+01 -0.73476100501E+02  0.76723777351E+02  0.00000000000E+00 0. -1.
        -12    1    4    4    0    0 -0.38408616036E+01 -0.11606945012E+03 -0.29390532762E+03  0.31601773854E+03  0.00000000000E+00 0.  1.
         -5    1    3    3    0  504  0.44956422460E+01  0.99946767703E+00 -0.44493842034E+03  0.44498707580E+03  0.47000000000E+01 0.  1.
<mgrwt>
<rscale>  2 0.20662120E+03</rscale>
<asrwt>0</asrwt>
<pdfrwt beam="1">  1       21 0.17574004E-01 0.20724617E+03</pdfrwt>
<pdfrwt beam="2">  1       21 0.14319800E+00 0.20724617E+03</pdfrwt>
<totfact> 0.97967030E+03</totfact>
</mgrwt>
</event>
<event>
12    1  0.2791583E-001  0.1968209E+03  0.7546771E-02  0.1152576E+00
         21   -1    0    0  502  503  0.00000000000E+00  0.00000000000E+00  0.14175638931E+03  0.14175638931E+03  0.00000000000E+00 0. -1.
         21   -1    0    0  503  504 -0.00000000000E+00 -0.00000000000E+00 -0.57495056278E+03  0.57495056278E+03  0.00000000000E+00 0. -1.
         -6    2    1    2    0  504  0.13250417057E+02 -0.92300984701E+02 -0.47667773594E+03  0.51571320679E+03  0.17333032737E+03 0.  0.
        -24    2    3    3    0    0  0.11422872782E+02 -0.11661601384E+03 -0.46861806873E+03  0.48960556814E+03  0.79880794357E+02 0.  0.
          6    2    1    2  502    0 -0.13250417057E+02  0.92300984701E+02  0.43483562467E+02  0.20099374530E+03  0.17266331433E+03 0.  0.
         24    2    5    5    0    0  0.24639491557E+02  0.91389654992E+01 -0.22862859953E+02  0.87964968518E+02  0.80774377661E+02 0.  0.
          2    1    6    6  501    0  0.51509354011E+02  0.16403364591E+02 -0.37256840723E+01  0.54186387980E+02  0.00000000000E+00 0. -1.
         -1    1    6    6    0  501 -0.26869862454E+02 -0.72643990917E+01 -0.19137175881E+02  0.33778580538E+02  0.00000000000E+00 0.  1.
          5    1    5    5  502    0 -0.37889908614E+02  0.83162019201E+02  0.66346422420E+02  0.11302877678E+03  0.47000000000E+01 0. -1.
         13    1    4    4    0    0 -0.30706945655E+02 -0.23050241208E+02 -0.15200593904E+03  0.15678021442E+03  0.00000000000E+00 0. -1.
        -14    1    4    4    0    0  0.42129818438E+02 -0.93565772634E+02 -0.31661212969E+03  0.33282535372E+03  0.00000000000E+00 0.  1.
         -5    1    3    3    0  504  0.18275442749E+01  0.24315029142E+02 -0.80596672129E+01  0.26107638649E+02  0.47000000000E+01 0.  1.
<mgrwt>
<rscale>  2 0.19667390E+03</rscale>
<asrwt>0</asrwt>
<pdfrwt beam="1">  1       21 0.21808676E-01 0.19682085E+03</pdfrwt>
<pdfrwt beam="2">  1       21 0.88453930E-01 0.19682085E+03</pdfrwt>
<totfact> 0.21404242E+04</totfact>
</mgrwt>
</event>
<event>
12    1  0.2791583E-001  0.1949081E+03  0.7546771E-02  0.1154156E+00
         21   -1    0    0  502  503  0.00000000000E+00  0.00000000000E+00  0.12779041106E+03  0.12779041106E+03  0.00000000000E+00 0.  1.
         21   -1    0    0  503  504 -0.00000000000E+00 -0.00000000000E+00 -0.30775082872E+03  0.30775082872E+03  0.00000000000E+00 0.  1.
         -6    2    1    2    0  504 -0.67117227287E+02  0.58781261032E+02 -0.13084092089E+03  0.23475203246E+03  0.17328938605E+03 0.  0.
        -24    2    3    3    0    0 -0.10530834006E+03  0.37950394957E+02 -0.13229157197E+03  0.19097212309E+03  0.80244705876E+02 0.  0.
          6    2    1    2  502    0  0.67117227287E+02 -0.58781261032E+02 -0.49119496767E+02  0.20078920732E+03  0.17304225486E+03 0.  0.
         24    2    5    5    0    0 -0.26168914408E+02 -0.51775462629E+02 -0.75705026704E+01  0.98320703116E+02  0.79019855345E+02 0.  0.
          4    1    6    6  501    0 -0.15965670049E+02  0.13161917208E+02 -0.22858122212E+02  0.30832327771E+02  0.00000000000E+00 0. -1.
         -3    1    6    6    0  501 -0.10203244359E+02 -0.64937379837E+02  0.15287619541E+02  0.67488375345E+02  0.00000000000E+00 0.  1.
          5    1    5    5  502    0  0.93286141695E+02 -0.70057984030E+01 -0.41548994097E+02  0.10246850421E+03  0.47000000000E+01 0. -1.
         11    1    4    4    0    0 -0.87714998346E+02 -0.81152610377E+01 -0.78400935907E+02  0.11792576117E+03  0.00000000000E+00 0. -1.
        -12    1    4    4    0    0 -0.17593341713E+02  0.46065655995E+02 -0.53890636059E+02  0.73046361919E+02  0.00000000000E+00 0.  1.
         -5    1    3    3    0  504  0.38191112771E+02  0.20830866075E+02  0.14506510741E+01  0.43779909372E+02  0.47000000000E+01 0.  1.
<mgrwt>
<rscale>  2 0.19485316E+03</rscale>
<asrwt>0</asrwt>
<pdfrwt beam="1">  1       21 0.19660063E-01 0.19490811E+03</pdfrwt>
<pdfrwt beam="2">  1       21 0.47346281E-01 0.19490811E+03</pdfrwt>
<totfact> 0.10161957E+05</totfact>
</mgrwt>
</event>
<event>
12    1  0.2791583E-001  0.1806409E+03  0.7546771E-02  0.1167770E+00
         21   -1    0    0  502  503  0.00000000000E+00  0.00000000000E+00  0.16976048677E+03  0.16976048677E+03  0.00000000000E+00 0. -1.
         21   -1    0    0  503  504 -0.00000000000E+00 -0.00000000000E+00 -0.20415562692E+03  0.20415562692E+03  0.00000000000E+00 0. -1.
         -6    2    1    2    0  504  0.17335734261E+02  0.46019321904E+02 -0.66912960740E+02  0.19037175900E+03  0.17130603212E+03 0.  0.
        -24    2    3    3    0    0  0.75423495451E+02  0.25402318197E+02 -0.25815301512E+02  0.11613998389E+03  0.80548647601E+02 0.  0.
          6    2    1    2  502    0 -0.17335734261E+02 -0.46019321904E+02  0.32517820585E+02  0.18354435469E+03  0.17381834142E+03 0.  0.
         24    2    5    5    0    0 -0.26259699464E+01  0.62743975160E+00 -0.45222429024E+02  0.91577328272E+02  0.79586742412E+02 0.  0.
          2    1    6    6  501    0 -0.27344029392E+02  0.30383609333E+02 -0.25191148380E+02  0.48015139448E+02  0.00000000000E+00 0. -1.
         -1    1    6    6    0  501  0.24718059446E+02 -0.29756169581E+02 -0.20031280644E+02  0.43562188824E+02  0.00000000000E+00 0.  1.
          5    1    5    5  502    0 -0.14709764315E+02 -0.46646761656E+02  0.77740249609E+02  0.91967026419E+02  0.47000000000E+01 0. -1.
         11    1    4    4    0    0  0.30701990966E+02 -0.29394306010E+01  0.27266579750E+02  0.41166963366E+02  0.00000000000E+00 0. -1.
        -12    1    4    4    0    0  0.44721504486E+02  0.28341748798E+02 -0.53081881262E+02  0.74973020525E+02  0.00000000000E+00 0.  1.
         -5    1    3    3    0  504 -0.58087761190E+02  0.20617003708E+02 -0.41097659229E+02  0.74231775110E+02  0.47000000000E+01 0.  1.
<mgrwt>
<rscale>  2 0.18003378E+03</rscale>
<asrwt>0</asrwt>
<pdfrwt beam="1">  1       21 0.26116998E-01 0.18064086E+03</pdfrwt>
<pdfrwt beam="2">  1       21 0.31408558E-01 0.18064086E+03</pdfrwt>
<totfact> 0.13626884E+05</totfact>
</mgrwt>
</event>
<event>
12    1  0.2791583E-001  0.2232849E+03  0.7546771E-02  0.1131687E+00
         21   -1    0    0  502  503  0.00000000000E+00  0.00000000000E+00  0.10278096640E+03  0.10278096640E+03  0.00000000000E+00 0.  1.
         21   -1    0    0  503  504 -0.00000000000E+00 -0.00000000000E+00 -0.51354244950E+03  0.51354244950E+03  0.00000000000E+00 0.  1.
         -6    2    1    2    0  504  0.13889533377E+03  0.31942650102E+02 -0.28186058576E+03  0.35958521027E+03  0.17188335289E+03 0.  0.
        -24    2    3    3    0    0  0.62004260005E+02  0.24285356747E+02 -0.25454301819E+03  0.27749251349E+03  0.88179590186E+02 0.  0.
          6    2    1    2  502    0 -0.13889533377E+03 -0.31942650102E+02 -0.12890089734E+03  0.25673820563E+03  0.17025515633E+03 0.  0.
         24    2    5    5    0    0 -0.12470753022E+03 -0.76487776261E+02 -0.12511356026E+03  0.20960015353E+03  0.82924504143E+02 0.  0.
          2    1    6    6  501    0 -0.88070264556E+02 -0.51186243713E+02 -0.12961001524E+03  0.16484889777E+03  0.00000000000E+00 0. -1.
         -1    1    6    6    0  501 -0.36637265663E+02 -0.25301532548E+02  0.44964549845E+01  0.44751255759E+02  0.00000000000E+00 0.  1.
          5    1    5    5  502    0 -0.14187803548E+02  0.44545126159E+02 -0.37873370829E+01  0.47138052105E+02  0.47000000000E+01 0. -1.
         13    1    4    4    0    0 -0.17071430588E+02  0.11347353528E+02 -0.11299142265E+03  0.11483578609E+03  0.00000000000E+00 0. -1.
        -14    1    4    4    0    0  0.79075690594E+02  0.12938003218E+02 -0.14155159554E+03  0.16265672740E+03  0.00000000000E+00 0.  1.
         -5    1    3    3    0  504  0.76891073763E+02  0.76572933551E+01 -0.27317567574E+02  0.82092696776E+02  0.47000000000E+01 0.  1.
<mgrwt>
<rscale>  2 0.22297148E+03</rscale>
<asrwt>0</asrwt>
<pdfrwt beam="1">  1       21 0.15812456E-01 0.22328487E+03</pdfrwt>
<pdfrwt beam="2">  1       21 0.79006531E-01 0.22328487E+03</pdfrwt>
<totfact> 0.49664580E+04</totfact>
</mgrwt>
</event>
<event>
12    1  0.2791583E-001  0.2084545E+03  0.7546771E-02  0.1143473E+00
         21   -1    0    0  502  503  0.00000000000E+00  0.00000000000E+00  0.51576850376E+03  0.51576850376E+03  0.00000000000E+00 0.  1.
         21   -1    0    0  503  504 -0.00000000000E+00 -0.00000000000E+00 -0.94222007388E+02  0.94222007388E+02  0.00000000000E+00 0. -1.
         -6    2    1    2    0  504 -0.84382700035E+02 -0.70727614217E+02  0.10654884674E+03  0.23410671101E+03  0.17700412402E+03 0.  0.
        -24    2    3    3    0    0 -0.51997588130E+02 -0.69235133080E+02 -0.45583235420E+01  0.11827098137E+03  0.80436272271E+02 0.  0.
          6    2    1    2  502    0  0.84382700035E+02  0.70727614217E+02  0.31499764963E+03  0.37588380014E+03  0.17303836700E+03 0.  0.
         24    2    5    5    0    0  0.59985945529E+02  0.79302098103E+02  0.32354101436E+03  0.34824682337E+03  0.81914135448E+02 0.  0.
          2    1    6    6  501    0  0.43686077756E+02 -0.34921754728E+01  0.12729031415E+03  0.13462352229E+03  0.00000000000E+00 0. -1.
         -1    1    6    6    0  501  0.16299867773E+02  0.82794273576E+02  0.19625070022E+03  0.21362330107E+03  0.00000000000E+00 0.  1.
          5    1    5    5  502    0  0.24396754505E+02 -0.85744838854E+01 -0.85433647276E+01  0.27636976773E+02  0.47000000000E+01 0. -1.
         11    1    4    4    0    0 -0.34670309833E+02 -0.55203653116E+02  0.34156833362E+02  0.73594585172E+02  0.00000000000E+00 0. -1.
        -12    1    4    4    0    0 -0.17327278296E+02 -0.14031479963E+02 -0.38715156904E+02  0.44676396198E+02  0.00000000000E+00 0.  1.
         -5    1    3    3    0  504 -0.32385111905E+02 -0.14924811377E+01  0.11110717028E+03  0.11583572964E+03  0.47000000000E+01 0.  1.
<mgrwt>
<rscale>  2 0.20761024E+03</rscale>
<asrwt>0</asrwt>
<pdfrwt beam="1">  1       21 0.79348999E-01 0.20845454E+03</pdfrwt>
<pdfrwt beam="2">  1       21 0.14495694E-01 0.20845454E+03</pdfrwt>
<totfact> 0.58043324E+04</totfact>
</mgrwt>
</event>
<event>
12    1  0.2791583E-001  0.1749500E+03  0.7546771E-02  0.1173029E+00
         21   -1    0    0  502  503  0.00000000000E+00  0.00000000000E+00  0.40075373146E+03  0.40075373146E+03  0.00000000000E+00 0.  1.
         21   -1    0    0  503  504 -0.00000000000E+00 -0.00000000000E+00 -0.12039609511E+03  0.12039609511E+03  0.00000000000E+00 0.  1.
         -6    2    1    2    0  504 -0.23639909651E+02 -0.22556854268E+01 -0.17899039076E+02  0.17586320850E+03  0.17333077931E+03 0.  0.
        -24    2    3    3    0    0 -0.78177251617E+02 -0.63248283907E+01  0.11584992559E+02  0.11355528192E+03  0.81295165133E+02 0.  0.
          6    2    1    2  502    0  0.23639909651E+02  0.22556854268E+01  0.29825667543E+03  0.34528661807E+03  0.17234230686E+03 0.  0.
         24    2    5    5    0    0  0.82406848648E+02  0.13452942515E+01  0.18328642633E+03  0.21607891663E+03  0.79394493623E+02 0.  0.
          2    1    6    6  501    0  0.51300390404E+02  0.39831382417E+02  0.10503610436E+03  0.12349434117E+03  0.00000000000E+00 0. -1.
         -1    1    6    6    0  501  0.31106458244E+02 -0.38486088166E+02  0.78250321962E+02  0.92584575465E+02  0.00000000000E+00 0.  1.
          5    1    5    5  502    0 -0.58766938997E+02  0.91039117530E+00  0.11497024910E+03  0.12920770143E+03  0.47000000000E+01 0. -1.
         11    1    4    4    0    0 -0.22964704606E+01 -0.20388100952E+02  0.27944262048E+02  0.34667423014E+02  0.00000000000E+00 0. -1.
        -12    1    4    4    0    0 -0.75880781156E+02  0.14063272561E+02 -0.16359269490E+02  0.78887858903E+02  0.00000000000E+00 0.  1.
         -5    1    3    3    0  504  0.54537341966E+02  0.40691429639E+01 -0.29484031635E+02  0.62307926580E+02  0.47000000000E+01 0.  1.
<mgrwt>
<rscale>  2 0.17470464E+03</rscale>
<asrwt>0</asrwt>
<pdfrwt beam="1">  1       21 0.61654420E-01 0.17494997E+03</pdfrwt>
<pdfrwt beam="2">  1       21 0.18522476E-01 0.17494997E+03</pdfrwt>
<totfact> 0.65586519E+04</totfact>
</mgrwt>
</event>
<event>
12    1  0.2791583E-001  0.1899838E+03  0.7546771E-02  0.1158646E+00
         21   -1    0    0  502  503  0.00000000000E+00  0.00000000000E+00  0.32904342959E+03  0.32904342959E+03  0.00000000000E+00 0.  1.
         21   -1    0    0  503  504 -0.00000000000E+00 -0.00000000000E+00 -0.10945198185E+03  0.10945198185E+03  0.00000000000E+00 0. -1.
         -6    2    1    2    0  504  0.72078760865E+02 -0.26562288898E+02  0.11880203865E+03  0.22343177417E+03  0.17293620315E+03 0.  0.
        -24    2    3    3    0    0  0.10371286755E+03  0.18432520232E+02  0.71235578601E+02  0.15056266085E+03  0.80613215324E+02 0.  0.
          6    2    1    2  502    0 -0.72078760865E+02  0.26562288898E+02  0.10078940910E+03  0.21506363727E+03  0.17376121584E+03 0.  0.
         24    2    5    5    0    0 -0.83154774991E+02  0.72353820036E+02  0.98694883386E+02  0.16767144962E+03  0.78887534709E+02 0.  0.
          2    1    6    6  501    0  0.72330420311E+01  0.22716906531E+02 -0.15043763355E+01  0.23888028121E+02  0.00000000000E+00 0. -1.
         -1    1    6    6    0  501 -0.90387817022E+02  0.49636913505E+02  0.10019925972E+03  0.14378342150E+03  0.00000000000E+00 0.  1.
          5    1    5    5  502    0  0.11076014126E+02 -0.45791531137E+02  0.20945257128E+01  0.47392187656E+02  0.47000000000E+01 0. -1.
         13    1    4    4    0    0  0.22172720630E+02 -0.24488008149E+02 -0.16491500449E+01  0.33075848880E+02  0.00000000000E+00 0. -1.
        -14    1    4    4    0    0  0.81540146922E+02  0.42920528381E+02  0.72884728646E+02  0.11748681197E+03  0.00000000000E+00 0.  1.
         -5    1    3    3    0  504 -0.31634106687E+02 -0.44994809130E+02  0.47566460049E+02  0.72869113321E+02  0.47000000000E+01 0.  1.
<mgrwt>
<rscale>  2 0.18979500E+03</rscale>
<asrwt>0</asrwt>
<pdfrwt beam="1">  1       21 0.50622066E-01 0.18998385E+03</pdfrwt>
<pdfrwt beam="2">  1       21 0.16838767E-01 0.18998385E+03</pdfrwt>
<totfact> 0.11800896E+05</totfact>
</mgrwt>
</event>
<event>
12    1  0.2791583E-001  0.2248571E+03  0.7546771E-02  0.1130436E+00
         21   -1    0    0  502  503  0.00000000000E+00  0.00000000000E+00  0.63046505185E+03  0.63046505185E+03  0.00000000000E+00 0. -1.
         21   -1    0    0  503  504 -0.00000000000E+00 -0.00000000000E+00 -0.97415526765E+02  0.97415526765E+02  0.00000000000E+00 0.  1.
         -6    2    1    2    0  504  0.76901594812E+02  0.11987196593E+03  0.42093327921E+03  0.47722690719E+03  0.17400445942E+03 0.  0.
        -24    2    3    3    0    0  0.10137234419E+03  0.11588864695E+03  0.24872216148E+03  0.30317678948E+03  0.79667568104E+02 0.  0.
          6    2    1    2  502    0 -0.76901594812E+02 -0.11987196593E+03  0.11211624588E+03  0.25065367143E+03  0.17313020219E+03 0.  0.
         24    2    5    5    0    0 -0.54441732758E+02 -0.11045789876E+02  0.98396717440E+02  0.13859164637E+03  0.80248480995E+02 0.  0.
          2    1    6    6  501    0 -0.43065727592E+01  0.12214963801E+02  0.78944572886E+02  0.79999984361E+02  0.00000000000E+00 0. -1.
         -1    1    6    6    0  501 -0.50135159999E+02 -0.23260753677E+02  0.19452144554E+02  0.58591662014E+02  0.00000000000E+00 0.  1.
          5    1    5    5  502    0 -0.22459862053E+02 -0.10882617605E+03  0.13719528436E+02  0.11206202505E+03  0.47000000000E+01 0. -1.
         11    1    4    4    0    0  0.63805957985E+02  0.28125564840E+02  0.15223171924E+03  0.16744176306E+03  0.00000000000E+00 0. -1.
        -12    1    4    4    0    0  0.37566386209E+02  0.87763082112E+02  0.96490442235E+02  0.13573502642E+03  0.00000000000E+00 0.  1.
         -5    1    3    3    0  504 -0.24470749383E+02  0.39833189789E+01  0.17221111773E+03  0.17405011771E+03  0.47000000000E+01 0.  1.
<mgrwt>
<rscale>  2 0.22468790E+03</rscale>
<asrwt>0</asrwt>
<pdfrwt beam="1">  1       21 0.96994621E-01 0.22485706E+03</pdfrwt>
<pdfrwt beam="2">  1       21 0.14987004E-01 0.22485706E+03</pdfrwt>
<totfact> 0.34073204E+04</totfact>
</mgrwt>
</event>
<event>
12    1  0.2791583E-001  0.1733359E+03  0.7546771E-02  0.1174453E+00
         21   -1    0    0  502  503  0.00000000000E+00  0.00000000000E+00  0.15199563913E+04  0.15199563913E+04  0.00000000000E+00 0.  1.
         21   -1    0    0  503  504 -0.00000000000E+00 -0.00000000000E+00 -0.35017802746E+02  0.35017802746E+02  0.00000000000E+00 0.  1.
         -6    2    1    2    0  504 -0.86188209185E+01  0.12289978416E+02  0.22927092746E+03  0.28742043125E+03  0.17268473725E+03 0.  0.
        -24    2    3    3    0    0 -0.57742855900E+02  0.37796901692E+02  0.21016099088E+03  0.22867476227E+03  0.57979838116E+02 0.  0.
          6    2    1    2  502    0  0.86188209185E+01 -0.12289978416E+02  0.12556676611E+04  0.12675537628E+04  0.17252808123E+03 0.  0.
         24    2    5    5    0    0  0.22323032172E+02  0.52689238642E+02  0.92862653342E+03  0.93380521486E+03  0.79815205953E+02 0.  0.
          2    1    6    6  501    0  0.46510487840E+02  0.39847222060E+02  0.79757001403E+03  0.79991809197E+03  0.00000000000E+00 0. -1.
         -1    1    6    6    0  501 -0.24187455668E+02  0.12842016581E+02  0.13105651939E+03  0.13388712290E+03  0.00000000000E+00 0.  1.
          5    1    5    5  502    0 -0.13704211254E+02 -0.64979217057E+02  0.32704112766E+03  0.33374854792E+03  0.47000000000E+01 0. -1.
         13    1    4    4    0    0 -0.41036408682E+02  0.36203027796E+02  0.77026290260E+02  0.94486482898E+02  0.00000000000E+00 0. -1.
        -14    1    4    4    0    0 -0.16706447218E+02  0.15938738961E+01  0.13313470062E+03  0.13418827937E+03  0.00000000000E+00 0.  1.
         -5    1    3    3    0  504  0.49124034982E+02 -0.25506923277E+02  0.19109936585E+02  0.58745668982E+02  0.47000000000E+01 0.  1.
<mgrwt>
<rscale>  2 0.17329690E+03</rscale>
<asrwt>0</asrwt>
<pdfrwt beam="1">  1       21 0.23383939E+00 0.17333593E+03</pdfrwt>
<pdfrwt beam="2">  1       21 0.53873555E-02 0.17333593E+03</pdfrwt>
<totfact> 0.19981474E+04</totfact>
</mgrwt>
</event>
<event>
12    1  0.2791583E-001  0.1891774E+03  0.7546771E-02  0.1161100E+00
         21   -1    0    0  502  503  0.00000000000E+00  0.00000000000E+00  0.18175645290E+03  0.18175645290E+03  0.00000000000E+00 0. -1.
         21   -1    0    0  503  504 -0.00000000000E+00 -0.00000000000E+00 -0.47067373653E+03  0.47067373653E+03  0.00000000000E+00 0. -1.
         -6    2    1    2    0  504  0.74547490041E+02 -0.16025089141E+02 -0.39574069929E+03  0.43517613963E+03  0.16417502755E+03 0.  0.
        -24    2    3    3    0    0  0.40420466566E+02  0.52247898012E+02 -0.23681647955E+03  0.25881046233E+03  0.80852665156E+02 0.  0.
          6    2    1    2  502    0 -0.74547490041E+02  0.16025089141E+02  0.10682341567E+03  0.21725404980E+03  0.17312985955E+03 0.  0.
         24    2    5    5    0    0 -0.30072185539E+02  0.22129421562E+02 -0.27581139629E+01  0.98740264861E+02  0.91367308543E+02 0.  0.
          2    1    6    6  501    0  0.17838520705E+02 -0.19850309835E+02  0.17479227844E+02  0.31902523843E+02  0.00000000000E+00 0. -1.
         -1    1    6    6    0  501 -0.47910706244E+02  0.41979731398E+02 -0.20237341807E+02  0.66837741019E+02  0.00000000000E+00 0.  1.
          5    1    5    5  502    0 -0.44475304502E+02 -0.61043324217E+01  0.10958152963E+03  0.11851378494E+03  0.47000000000E+01 0. -1.
         13    1    4    4    0    0  0.64289821053E+02  0.45989469853E+02 -0.16702887478E+03  0.18478868320E+03  0.00000000000E+00 0. -1.
        -14    1    4    4    0    0 -0.23869354487E+02  0.62584281588E+01 -0.69787604762E+02  0.74021779127E+02  0.00000000000E+00 0.  1.
         -5    1    3    3    0  504  0.34127023475E+02 -0.68272987153E+02 -0.15892421975E+03  0.17636567730E+03  0.47000000000E+01 0.  1.
<mgrwt>
<rscale>  2 0.18710372E+03</rscale>
<asrwt>0</asrwt>
<pdfrwt beam="1">  1       21 0.27962532E-01 0.18917738E+03</pdfrwt>
<pdfrwt beam="2">  1       21 0.72411342E-01 0.18917738E+03</pdfrwt>
<totfact> 0.21043577E+04</totfact>
</mgrwt>
</event>
<event>
12    1  0.2791583E-001  0.2187556E+03  0.7546771E-02  0.1135088E+00
         21   -1    0    0  502  503  0.00000000000E+00  0.00000000000E+00  0.61965888807E+03  0.61965888807E+03  0.00000000000E+00 0. -1.
         21   -1    0    0  503  504 -0.00000000000E+00 -0.00000000000E+00 -0.15492031084E+03  0.15492031084E+03  0.00000000000E+00 0.  1.
         -6    2    1    2    0  504 -0.20845390565E+02 -0.13033283774E+03 -0.42417109347E+02  0.22283000680E+03  0.17445005550E+03 0.  0.
        -24    2    3    3    0    0  0.42848919120E+02 -0.11993100520E+03 -0.37879984636E+02  0.15796215107E+03  0.85426413114E+02 0.  0.
          6    2    1    2  502    0  0.20845390565E+02  0.13033283774E+03  0.50715568658E+03  0.55174919210E+03  0.17262416301E+03 0.  0.
         24    2    5    5    0    0  0.18502105528E+01  0.12875300522E+02  0.11645520489E+03  0.14330574889E+03  0.82495613677E+02 0.  0.
          2    1    6    6  501    0  0.39600935477E+02 -0.69431653506E+01  0.65620852165E+02  0.76958026706E+02  0.00000000000E+00 0. -1.
         -1    1    6    6    0  501 -0.37750724924E+02  0.19818465873E+02  0.50834352730E+02  0.66347722186E+02  0.00000000000E+00 0.  1.
          5    1    5    5  502    0  0.18995180012E+02  0.11745753722E+03  0.39070048168E+03  0.40844344321E+03  0.47000000000E+01 0. -1.
         11    1    4    4    0    0 -0.17583526172E+02 -0.76500827762E+01  0.10160885440E+02  0.21701330652E+02  0.00000000000E+00 0. -1.
        -12    1    4    4    0    0  0.60432445291E+02 -0.11228092242E+03 -0.48040870076E+02  0.13626082042E+03  0.00000000000E+00 0.  1.
         -5    1    3    3    0  504 -0.63694309685E+02 -0.10401832543E+02 -0.45371247111E+01  0.64867855731E+02  0.47000000000E+01 0.  1.
<mgrwt>
<rscale>  2 0.21839134E+03</rscale>
<asrwt>0</asrwt>
<pdfrwt beam="1">  1       21 0.95332135E-01 0.21875557E+03</pdfrwt>
<pdfrwt beam="2">  1       21 0.23833894E-01 0.21875557E+03</pdfrwt>
<totfact> 0.14992160E+04</totfact>
</mgrwt>
</event>
<event>
12    1  0.2791583E-001  0.2842155E+03  0.7546771E-02  0.1093617E+00
         21   -1    0    0  502  503  0.00000000000E+00  0.00000000000E+00  0.50518743452E+03  0.50518743452E+03  0.00000000000E+00 0. -1.
         21   -1    0    0  503  504 -0.00000000000E+00 -0.00000000000E+00 -0.31659802007E+03  0.31659802007E+03  0.00000000000E+00 0.  1.
         -6    2    1    2    0  504 -0.14629009676E+03 -0.16845731046E+03 -0.19571065914E+03  0.34380530421E+03  0.17355335562E+03 0.  0.
        -24    2    3    3    0    0 -0.15809688929E+03 -0.84823170648E+02 -0.12764270098E+03  0.23522627024E+03  0.82759545757E+02 0.  0.
          6    2    1    2  502    0  0.14629009676E+03  0.16845731046E+03  0.38430007359E+03  0.47798015038E+03  0.17606765671E+03 0.  0.
         24    2    5    5    0    0  0.87391205151E+02  0.72490017724E+02  0.98629908119E+02  0.17088353016E+03  0.81125191517E+02 0.  0.
          2    1    6    6  501    0  0.61929528159E+02  0.11086894039E+02  0.16154344276E+02  0.64954972992E+02  0.00000000000E+00 0. -1.
         -1    1    6    6    0  501  0.25461676992E+02  0.61403123685E+02  0.82475563842E+02  0.10592855717E+03  0.00000000000E+00 0.  1.
          5    1    5    5  502    0  0.58898891605E+02  0.95967292732E+02  0.28567016547E+03  0.30709662022E+03  0.47000000000E+01 0. -1.
         13    1    4    4    0    0  0.67226673374E+01  0.44487965840E+01  0.64320045569E+00  0.80870114382E+01  0.00000000000E+00 0. -1.
        -14    1    4    4    0    0 -0.16481955663E+03 -0.89271967232E+02 -0.12828590144E+03  0.22713925880E+03  0.00000000000E+00 0.  1.
         -5    1    3    3    0  504  0.11806792532E+02 -0.83634139809E+02 -0.68067958157E+02  0.10857903398E+03  0.47000000000E+01 0.  1.
<mgrwt>
<rscale>  2 0.28382708E+03</rscale>
<asrwt>0</asrwt>
<pdfrwt beam="1">  1       21 0.77721144E-01 0.28421555E+03</pdfrwt>
<pdfrwt beam="2">  1       21 0.48707388E-01 0.28421555E+03</pdfrwt>
<totfact> 0.55684899E+03</totfact>
</mgrwt>
</event>
<event>
12    1  0.2791583E-001  0.1965515E+03  0.7546771E-02  0.1152757E+00
         21   -1    0    0  502  503  0.00000000000E+00  0.00000000000E+00  0.43654384137E+03  0.43654384137E+03  0.00000000000E+00 0.  1.
         21   -1    0    0  503  504 -0.00000000000E+00 -0.00000000000E+00 -0.15014787159E+03  0.15014787159E+03  0.00000000000E+00 0.  1.
         -6    2    1    2    0  504  0.20827528586E+02  0.88779746734E+02 -0.44937470413E+02  0.20162306873E+03  0.17411736335E+03 0.  0.
        -24    2    3    3    0    0 -0.13968350897E+02 -0.15089515292E+02  0.85470008868E+00  0.82801396876E+02  0.80203070476E+02 0.  0.
          6    2    1    2  502    0 -0.20827528586E+02 -0.88779746734E+02  0.33133344020E+03  0.38506864423E+03  0.17372502065E+03 0.  0.
         24    2    5    5    0    0  0.39067685419E+02 -0.95472418521E+01  0.20611104609E+03  0.22516878658E+03  0.81251370815E+02 0.  0.
          2    1    6    6  501    0  0.57001677407E+01  0.16656366533E+02  0.32294044069E+01  0.17898477901E+02  0.00000000000E+00 0. -1.
         -1    1    6    6    0  501  0.33367517678E+02 -0.26203608385E+02  0.20288164169E+03  0.20727030868E+03  0.00000000000E+00 0.  1.
          5    1    5    5  502    0 -0.59895214005E+02 -0.79232504882E+02  0.12522239410E+03  0.15989985765E+03  0.47000000000E+01 0. -1.
         11    1    4    4    0    0 -0.34942812904E+02  0.20540837591E+02 -0.57259818811E+01  0.40935474238E+02  0.00000000000E+00 0. -1.
        -12    1    4    4    0    0  0.20974462008E+02 -0.35630352883E+02  0.65806819697E+01  0.41865922637E+02  0.00000000000E+00 0.  1.
         -5    1    3    3    0  504  0.34795879482E+02  0.10386926203E+03 -0.45792170501E+02  0.11882167185E+03  0.47000000000E+01 0.  1.
<mgrwt>
<rscale>  2 0.19646456E+03</rscale>
<asrwt>0</asrwt>
<pdfrwt beam="1">  1       21 0.67160590E-01 0.19655148E+03</pdfrwt>
<pdfrwt beam="2">  1       21 0.23099673E-01 0.19655148E+03</pdfrwt>
<totfact> 0.35650759E+04</totfact>
</mgrwt>
</event>
<event>
12    1  0.2791583E-001  0.1906012E+03  0.7546771E-02  0.1157965E+00
         21   -1    0    0  502  503  0.00000000000E+00  0.00000000000E+00  0.69911354299E+02  0.69911354299E+02  0.00000000000E+00 0.  1.
         21   -1    0    0  503  504 -0.00000000000E+00 -0.00000000000E+00 -0.73923154283E+03  0.73923154283E+03  0.00000000000E+00 0.  1.
         -6    2    1    2    0  504  0.80608224295E+02  0.90519409429E+01 -0.55531018062E+03  0.58704582719E+03  0.17226079955E+03 0.  0.
        -24    2    3    3    0    0 -0.14417286716E+01  0.40502110861E+02 -0.38462173935E+03  0.39500952345E+03  0.80350119305E+02 0.  0.
          6    2    1    2  502    0 -0.80608224295E+02 -0.90519409429E+01 -0.11401000791E+03  0.22209706994E+03  0.17247957303E+03 0.  0.
         24    2    5    5    0    0 -0.97483406088E+02 -0.51190294307E+02 -0.11388859003E+03  0.17646246325E+03  0.77749143436E+02 0.  0.
          4    1    6    6  501    0 -0.48066840559E+02  0.14008898089E+02 -0.61554841296E+02  0.79345251112E+02  0.00000000000E+00 0. -1.
         -3    1    6    6    0  501 -0.49416565529E+02 -0.65199192397E+02 -0.52333748733E+02  0.97117212142E+02  0.00000000000E+00 0.  1.
          5    1    5    5  502    0  0.16875181793E+02  0.42138353365E+02 -0.12141787922E+00  0.45634606683E+02  0.47000000000E+01 0. -1.
         13    1    4    4    0    0 -0.71997668745E+01  0.11054355390E+02 -0.48519210642E+01  0.14056192733E+02  0.00000000000E+00 0. -1.
        -14    1    4    4    0    0  0.57580382028E+01  0.29447755472E+02 -0.37976981828E+03  0.38095333072E+03  0.00000000000E+00 0.  1.
         -5    1    3    3    0  504  0.82049952967E+02 -0.31450169918E+02 -0.17068844127E+03  0.19203630374E+03  0.47000000000E+01 0.  1.
<mgrwt>
<rscale>  2 0.19055172E+03</rscale>
<asrwt>0</asrwt>
<pdfrwt beam="1">  1       21 0.10755593E-01 0.19060122E+03</pdfrwt>
<pdfrwt beam="2">  1       21 0.11372792E+00 0.19060122E+03</pdfrwt>
<totfact> 0.43010844E+04</totfact>
</mgrwt>
</event>
<event>
12    1  0.2791583E-001  0.2593527E+03  0.7546771E-02  0.1107819E+00
         21   -1    0    0  502  503  0.00000000000E+00  0.00000000000E+00  0.27994485859E+03  0.27994485859E+03  0.00000000000E+00 0.  1.
         21   -1    0    0  503  504 -0.00000000000E+00 -0.00000000000E+00 -0.47789364370E+03  0.47789364370E+03  0.00000000000E+00 0.  1.
         -6    2    1    2    0  504  0.19016380243E+03  0.27381245767E+02 -0.36696550207E+03  0.44827351621E+03  0.17138687598E+03 0.  0.
        -24    2    3    3    0    0  0.21180684867E+03  0.37395281428E+02 -0.30535445785E+03  0.38204124967E+03  0.80334446579E+02 0.  0.
          6    2    1    2  502    0 -0.19016380243E+03 -0.27381245767E+02  0.16901671695E+03  0.30956498608E+03  0.17421775347E+03 0.  0.
         24    2    5    5    0    0 -0.19260472550E+03  0.79488702356E+01  0.17682543399E+03  0.27299667652E+03  0.78103690453E+02 0.  0.
          4    1    6    6  501    0 -0.18191992398E+03  0.87053969298E+01  0.12700585275E+03  0.22203857617E+03  0.00000000000E+00 0. -1.
         -3    1    6    6    0  501 -0.10684801522E+02 -0.75652669415E+00  0.49819581239E+02  0.50958100348E+02  0.00000000000E+00 0.  1.
          5    1    5    5  502    0  0.24409230718E+01 -0.35330116003E+02 -0.78087170377E+01  0.36568309559E+02  0.47000000000E+01 0. -1.
         11    1    4    4    0    0  0.26478774058E+02  0.13921640085E+02 -0.81551597288E+01  0.31007163180E+02  0.00000000000E+00 0. -1.
        -12    1    4    4    0    0  0.18532807462E+03  0.23473641343E+02 -0.29719929812E+03  0.35103408649E+03  0.00000000000E+00 0.  1.
         -5    1    3    3    0  504 -0.21643046246E+02 -0.10014035661E+02 -0.61611044222E+02  0.66232266541E+02  0.47000000000E+01 0.  1.
<mgrwt>
<rscale>  2 0.25887814E+03</rscale>
<asrwt>0</asrwt>
<pdfrwt beam="1">  1       21 0.43068441E-01 0.25935271E+03</pdfrwt>
<pdfrwt beam="2">  1       21 0.73522097E-01 0.25935271E+03</pdfrwt>
<totfact> 0.82594078E+03</totfact>
</mgrwt>
</event>
<event>
12    1  0.2791583E-001  0.1910007E+03  0.7546771E-02  0.1157641E+00
         21   -1    0    0  502  503  0.00000000000E+00  0.00000000000E+00  0.73146886343E+03  0.73146886343E+03  0.00000000000E+00 0.  1.
         21   -1    0    0  503  504 -0.00000000000E+00 -0.00000000000E+00 -0.57767721983E+02  0.57767721983E+02  0.00000000000E+00 0.  1.
         -6    2    1    2    0  504  0.69558889571E+02  0.37786004924E+02  0.19039759172E+03  0.26968967857E+03  0.17382479257E+03 0.  0.
        -24    2    3    3    0    0  0.94264628879E+02  0.58848128768E+02  0.19238669878E+03  0.23682582058E+03  0.82005517538E+02 0.  0.
          6    2    1    2  502    0 -0.69558889571E+02 -0.37786004924E+02  0.48330354973E+03  0.51954690684E+03  0.17343715271E+03 0.  0.
         24    2    5    5    0    0 -0.98535993876E+02  0.10207094327E+02  0.39085298565E+03  0.41132395665E+03  0.81288462022E+02 0.  0.
          2    1    6    6  501    0 -0.57201594382E+02  0.10921063845E+02  0.87124205520E+02  0.10479465264E+03  0.00000000000E+00 0. -1.
         -1    1    6    6    0  501 -0.41334399493E+02 -0.71396951785E+00  0.30372878013E+03  0.30652930400E+03  0.00000000000E+00 0.  1.
          5    1    5    5  502    0  0.28977104305E+02 -0.47993099251E+02  0.92450564082E+02  0.10822295019E+03  0.47000000000E+01 0. -1.
         11    1    4    4    0    0  0.20244402951E+02  0.17151671914E+02  0.12666910941E+03  0.12941823279E+03  0.00000000000E+00 0. -1.
        -12    1    4    4    0    0  0.74020225929E+02  0.41696456854E+02  0.65717589368E+02  0.10740758778E+03  0.00000000000E+00 0.  1.
         -5    1    3    3    0  504 -0.24705739309E+02 -0.21062123843E+02 -0.19891070618E+01  0.32863857998E+02  0.47000000000E+01 0.  1.
<mgrwt>
<rscale>  2 0.19091249E+03</rscale>
<asrwt>0</asrwt>
<pdfrwt beam="1">  1       21 0.11253366E+00 0.19100073E+03</pdfrwt>
<pdfrwt beam="2">  1       21 0.88873424E-02 0.19100073E+03</pdfrwt>
<totfact> 0.61769309E+04</totfact>
</mgrwt>
</event>
<event>
12    1  0.2791583E-001  0.3591624E+03  0.7546771E-02  0.1058930E+00
         21   -1    0    0  502  503  0.00000000000E+00  0.00000000000E+00  0.18468325373E+03  0.18468325373E+03  0.00000000000E+00 0. -1.
         21   -1    0    0  503  504 -0.00000000000E+00 -0.00000000000E+00 -0.75798439311E+03  0.75798439311E+03  0.00000000000E+00 0.  1.
         -6    2    1    2    0  504  0.35123983461E+02  0.31254596395E+03 -0.41896607943E+03  0.55174959018E+03  0.17313682670E+03 0.  0.
        -24    2    3    3    0    0 -0.11941408338E+02  0.19729688993E+03 -0.16861571101E+03  0.27211608515E+03  0.80915052930E+02 0.  0.
          6    2    1    2  502    0 -0.35123983461E+02 -0.31254596395E+03 -0.15433505996E+03  0.39091805666E+03  0.17343281839E+03 0.  0.
         24    2    5    5    0    0 -0.22059740465E+02 -0.32799476813E+03 -0.14496565890E+03  0.36813175218E+03  0.80241788587E+02 0.  0.
          4    1    6    6  501    0 -0.38340915511E+02 -0.20793037658E+03 -0.58817712408E+02  0.21946432648E+03  0.00000000000E+00 0. -1.
         -3    1    6    6    0  501  0.16281175046E+02 -0.12006439155E+03 -0.86147946489E+02  0.14866742570E+03  0.00000000000E+00 0.  1.
          5    1    5    5  502    0 -0.13064242996E+02  0.15448804178E+02 -0.93694010596E+01  0.22786304479E+02  0.47000000000E+01 0. -1.
         11    1    4    4    0    0  0.27406896640E+02  0.70643839972E+02 -0.91120713858E+02  0.11851022995E+03  0.00000000000E+00 0. -1.
        -12    1    4    4    0    0 -0.39348304978E+02  0.12665304996E+03 -0.77494997150E+02  0.15360585520E+03  0.00000000000E+00 0.  1.
         -5    1    3    3    0  504  0.47065391799E+02  0.11524907402E+03 -0.25035036842E+03  0.27963350503E+03  0.47000000000E+01 0.  1.
<mgrwt>
<rscale>  2 0.35912667E+03</rscale>
<asrwt>0</asrwt>
<pdfrwt beam="1">  1       21 0.28412809E-01 0.35916238E+03</pdfrwt>
<pdfrwt beam="2">  1       21 0.11661298E+00 0.35916238E+03</pdfrwt>
<totfact> 0.61028238E+03</totfact>
</mgrwt>
</event>
<event>
12    1  0.2791583E-001  0.2026874E+03  0.7546771E-02  0.1147624E+00
         21   -1    0    0  502  503  0.00000000000E+00  0.00000000000E+00  0.56090100555E+02  0.56090100555E+02  0.00000000000E+00 0.  1.
         21   -1    0    0  503  504 -0.00000000000E+00 -0.00000000000E+00 -0.11326155706E+04  0.11326155706E+04  0.00000000000E+00 0. -1.
         -6    2    1    2    0  504  0.60307695837E+02 -0.83855579759E+02 -0.89202325667E+03  0.91461947391E+03  0.17365055480E+03 0.  0.
        -24    2    3    3    0    0  0.54089941195E+02 -0.81781136208E+02 -0.34573174287E+03  0.36826842208E+03  0.80481778641E+02 0.  0.
          6    2    1    2  502    0 -0.60307695837E+02  0.83855579759E+02 -0.18450221336E+03  0.27408619723E+03  0.17439438163E+03 0.  0.
         24    2    5    5    0    0 -0.74363352871E+02  0.99345914061E+01 -0.54663450088E+02  0.12394603451E+03  0.82133564020E+02 0.  0.
          2    1    6    6  501    0 -0.39319776602E+01  0.33031494878E+02 -0.25992589029E+01  0.33366094303E+02  0.00000000000E+00 0. -1.
         -1    1    6    6    0  501 -0.70431375211E+02 -0.23096903472E+02 -0.52064191186E+02  0.90579940207E+02  0.00000000000E+00 0.  1.
          5    1    5    5  502    0  0.14055657034E+02  0.73920988353E+02 -0.12983876328E+03  0.15014016272E+03  0.47000000000E+01 0. -1.
         11    1    4    4    0    0  0.10551404563E+02 -0.16913642948E+02 -0.21536205511E+03  0.21628272755E+03  0.00000000000E+00 0. -1.
        -12    1    4    4    0    0  0.43538536633E+02 -0.64867493259E+02 -0.13036968777E+03  0.15198569453E+03  0.00000000000E+00 0.  1.
         -5    1    3    3    0  504  0.62177546413E+01 -0.20744435517E+01 -0.54629151380E+03  0.54635105183E+03  0.47000000000E+01 0.  1.
<mgrwt>
<rscale>  2 0.20252729E+03</rscale>
<asrwt>0</asrwt>
<pdfrwt beam="1">  1       21 0.86292472E-02 0.20268739E+03</pdfrwt>
<pdfrwt beam="2">  1       21 0.17424853E+00 0.20268739E+03</pdfrwt>
<totfact> 0.20808753E+04</totfact>
</mgrwt>
</event>
<event>
12    1  0.2791583E-001  0.2362431E+03  0.7546771E-02  0.1122385E+00
         21   -1    0    0  502  503  0.00000000000E+00  0.00000000000E+00  0.30560787519E+03  0.30560787519E+03  0.00000000000E+00 0.  1.
         21   -1    0    0  503  504 -0.00000000000E+00 -0.00000000000E+00 -0.18243482462E+03  0.18243482462E+03  0.00000000000E+00 0.  1.
         -6    2    1    2    0  504 -0.16145855365E+03  0.10489517314E+01  0.55802468821E+02  0.24238114691E+03  0.17194400253E+03 0.  0.
        -24    2    3    3    0    0 -0.57732555214E+02  0.30317634222E+01 -0.34118934140E+02  0.10500952319E+03  0.80750596117E+02 0.  0.
          6    2    1    2  502    0  0.16145855365E+03 -0.10489517314E+01  0.67370581753E+02  0.24566155290E+03  0.17245532303E+03 0.  0.
         24    2    5    5    0    0  0.10023688550E+03  0.66523978119E+02  0.42221939592E+02  0.15095813320E+03  0.80825694667E+02 0.  0.
          2    1    6    6  501    0  0.50256809391E+02  0.78579126962E+02  0.31388649603E+02  0.98415818892E+02  0.00000000000E+00 0. -1.
         -1    1    6    6    0  501  0.49980076105E+02 -0.12055148844E+02  0.10833289989E+02  0.52542314310E+02  0.00000000000E+00 0.  1.
          5    1    5    5  502    0  0.61221668152E+02 -0.67572929850E+02  0.25148642161E+02  0.94703419698E+02  0.47000000000E+01 0. -1.
         13    1    4    4    0    0 -0.55149141170E+01  0.32038623010E+02  0.59933265424E+01  0.33057640646E+02  0.00000000000E+00 0. -1.
        -14    1    4    4    0    0 -0.52217641097E+02 -0.29006859587E+02 -0.40112260683E+02  0.71951882546E+02  0.00000000000E+00 0.  1.
         -5    1    3    3    0  504 -0.10372599843E+03 -0.19828116907E+01  0.89921402961E+02  0.13737162372E+03  0.47000000000E+01 0.  1.
<mgrwt>
<rscale>  2 0.23614980E+03</rscale>
<asrwt>0</asrwt>
<pdfrwt beam="1">  1       21 0.47016596E-01 0.23624310E+03</pdfrwt>
<pdfrwt beam="2">  1       21 0.28066896E-01 0.23624310E+03</pdfrwt>
<totfact> 0.51475135E+04</totfact>
</mgrwt>
</event>
<event>
12    1  0.2791583E-001  0.1807928E+03  0.7546771E-02  0.1167153E+00
         21   -1    0    0  502  503  0.00000000000E+00  0.00000000000E+00  0.77204976376E+02  0.77204976376E+02  0.00000000000E+00 0.  1.
         21   -1    0    0  503  504 -0.00000000000E+00 -0.00000000000E+00 -0.49251283453E+03  0.49251283453E+03  0.00000000000E+00 0.  1.
         -6    2    1    2    0  504 -0.21180682773E+02 -0.48276110556E+02 -0.31501236511E+03  0.36296865210E+03  0.17243621449E+03 0.  0.
        -24    2    3    3    0    0  0.81965000448E+01  0.31205501694E+02 -0.21819614164E+03  0.23422154851E+03  0.78798550833E+02 0.  0.
          6    2    1    2  502    0  0.21180682773E+02  0.48276110556E+02 -0.10029549305E+03  0.20674915880E+03  0.17293589728E+03 0.  0.
         24    2    5    5    0    0  0.36446614075E+02  0.73800105583E+02 -0.13671023871E+02  0.11504086234E+03  0.79200327347E+02 0.  0.
          2    1    6    6  501    0  0.31014550186E+02  0.56806937430E+02 -0.45110998898E+02  0.78891905067E+02  0.00000000000E+00 0. -1.
         -1    1    6    6    0  501  0.54320638896E+01  0.16993168152E+02  0.31439975028E+02  0.36148957270E+02  0.00000000000E+00 0.  1.
          5    1    5    5  502    0 -0.15265931302E+02 -0.25523995027E+02 -0.86624469176E+02  0.91708296466E+02  0.47000000000E+01 0. -1.
         11    1    4    4    0    0  0.13067777031E+02  0.21587760815E+01 -0.19815526569E+03  0.19859742302E+03  0.00000000000E+00 0. -1.
        -12    1    4    4    0    0 -0.48712769867E+01  0.29046725612E+02 -0.20040875950E+02  0.35624125493E+02  0.00000000000E+00 0.  1.
         -5    1    3    3    0  504 -0.29377182818E+02 -0.79481612249E+02 -0.96816223469E+02  0.12874710359E+03  0.47000000000E+01 0.  1.
<mgrwt>
<rscale>  2 0.18067318E+03</rscale>
<asrwt>0</asrwt>
<pdfrwt beam="1">  1       21 0.11877689E-01 0.18079278E+03</pdfrwt>
<pdfrwt beam="2">  1       21 0.75771206E-01 0.18079278E+03</pdfrwt>
<totfact> 0.93318575E+04</totfact>
</mgrwt>
</event>
<event>
12    1  0.2791583E-001  0.2141073E+03  0.7546771E-02  0.1138742E+00
         21   -1    0    0  502  503  0.00000000000E+00  0.00000000000E+00  0.84757101451E+03  0.84757101451E+03  0.00000000000E+00 0.  1.
         21   -1    0    0  503  504 -0.00000000000E+00 -0.00000000000E+00 -0.59024147092E+02  0.59024147092E+02  0.00000000000E+00 0.  1.
         -6    2    1    2    0  504  0.11981928243E+03 -0.24066732744E+02  0.25832043833E+03  0.33551658032E+03  0.17580119097E+03 0.  0.
        -24    2    3    3    0    0  0.48544448591E+02  0.36113968338E+02  0.20375947962E+03  0.22734631206E+03  0.80669931659E+02 0.  0.
          6    2    1    2  502    0 -0.11981928243E+03  0.24066732744E+02  0.53022642909E+03  0.57107858128E+03  0.17336323667E+03 0.  0.
         24    2    5    5    0    0  0.88759100941E+01 -0.58019774953E+01  0.18665566111E+03  0.20295149040E+03  0.78971684224E+02 0.  0.
          4    1    6    6  501    0  0.27946620294E+02 -0.30706212852E+02  0.63539358061E+02  0.75902141711E+02  0.00000000000E+00 0. -1.
         -3    1    6    6    0  501 -0.19070710200E+02  0.24904235357E+02  0.12311630305E+03  0.12704934869E+03  0.00000000000E+00 0.  1.
          5    1    5    5  502    0 -0.12869519252E+03  0.29868710239E+02  0.34357076798E+03  0.36812709088E+03  0.47000000000E+01 0. -1.
         13    1    4    4    0    0 -0.21398124693E+02 -0.14391803777E+01  0.44334389939E+02  0.49249254937E+02  0.00000000000E+00 0. -1.
        -14    1    4    4    0    0  0.69942573284E+02  0.37553148715E+02  0.15942508968E+03  0.17809705712E+03  0.00000000000E+00 0.  1.
         -5    1    3    3    0  504  0.71274833835E+02 -0.60180701081E+02  0.54560958711E+02  0.10817026826E+03  0.47000000000E+01 0.  1.
<mgrwt>
<rscale>  2 0.21360622E+03</rscale>
<asrwt>0</asrwt>
<pdfrwt beam="1">  1       21 0.13039553E+00 0.21410728E+03</pdfrwt>
<pdfrwt beam="2">  1       21 0.90806387E-02 0.21410728E+03</pdfrwt>
<totfact> 0.40760990E+04</totfact>
</mgrwt>
</event>
<event>
12    1  0.2791583E-001  0.1866298E+03  0.7546771E-02  0.1161791E+00
         21   -1    0    0  502  503  0.00000000000E+00  0.00000000000E+00  0.23466144506E+03  0.23466144506E+03  0.00000000000E+00 0. -1.
         21   -1    0    0  503  504 -0.00000000000E+00 -0.00000000000E+00 -0.23029117497E+03  0.23029117497E+03  0.00000000000E+00 0. -1.
         -6    2    1    2    0  504 -0.61876768101E+02  0.29581718403E+02 -0.13716033973E+03  0.23072711957E+03  0.17238976888E+03 0.  0.
        -24    2    3    3    0    0  0.75525470000E+01  0.64907952036E+02 -0.54295223531E+02  0.11689790513E+03  0.80293621919E+02 0.  0.
          6    2    1    2  502    0  0.61876768101E+02 -0.29581718403E+02  0.14153060982E+03  0.23422550046E+03  0.17357090498E+03 0.  0.
         24    2    5    5    0    0  0.27967210320E+01 -0.17174555991E+02  0.67085526447E+01  0.86430146197E+02  0.84394185054E+02 0.  0.
          4    1    6    6  501    0  0.29627538992E+02 -0.15414621312E+02  0.34321014329E+02  0.47888763207E+02  0.00000000000E+00 0. -1.
         -3    1    6    6    0  501 -0.26830817960E+02 -0.17599346785E+01 -0.27612461685E+02  0.38541382990E+02  0.00000000000E+00 0.  1.
          5    1    5    5  502    0  0.59080047069E+02 -0.12407162412E+02  0.13482205718E+03  0.14779535427E+03  0.47000000000E+01 0. -1.
         13    1    4    4    0    0 -0.18374876397E+02  0.41861997511E+02 -0.65999780716E+02  0.80287196817E+02  0.00000000000E+00 0. -1.
        -14    1    4    4    0    0  0.25927423397E+02  0.23045954525E+02  0.11704557185E+02  0.36610708309E+02  0.00000000000E+00 0.  1.
         -5    1    3    3    0  504 -0.69429315101E+02 -0.35326233633E+02 -0.82865116203E+02  0.11382921445E+03  0.47000000000E+01 0.  1.
<mgrwt>
<rscale>  2 0.18635467E+03</rscale>
<asrwt>0</asrwt>
<pdfrwt beam="1">  1       21 0.36101761E-01 0.18662977E+03</pdfrwt>
<pdfrwt beam="2">  1       21 0.35429411E-01 0.18662977E+03</pdfrwt>
<totfact> 0.56986210E+04</totfact>
</mgrwt>
</event>
<event>
12    1  0.2791583E-001  0.2407226E+03  0.7546771E-02  0.1119341E+00
         21   -1    0    0  502  503  0.00000000000E+00  0.00000000000E+00  0.47803584913E+02  0.47803584913E+02  0.00000000000E+00 0.  1.
         21   -1    0    0  503  504 -0.00000000000E+00 -0.00000000000E+00 -0.12314930144E+04  0.12314930144E+04  0.00000000000E+00 0. -1.
         -6    2    1    2    0  504  0.72714524361E+02  0.15065939225E+03 -0.67393008143E+03  0.71563197888E+03  0.17309454066E+03 0.  0.
        -24    2    3    3    0    0  0.27203078226E+02  0.18113885499E+02 -0.38551311326E+03  0.39493579771E+03  0.79283059347E+02 0.  0.
          6    2    1    2  502    0 -0.72714524361E+02 -0.15065939225E+03 -0.50975934802E+03  0.56366462040E+03  0.17285125650E+03 0.  0.
         24    2    5    5    0    0 -0.43018388667E+02 -0.43591841723E+02 -0.37919465173E+03  0.39215791276E+03  0.79046911425E+02 0.  0.
          4    1    6    6  501    0 -0.57968834106E+02 -0.16872183911E+02 -0.16330556136E+03  0.17410847965E+03  0.00000000000E+00 0. -1.
         -3    1    6    6    0  501  0.14950445439E+02 -0.26719657812E+02 -0.21588909038E+03  0.21804943310E+03  0.00000000000E+00 0.  1.
          5    1    5    5  502    0 -0.29696135694E+02 -0.10706755053E+03 -0.13056469628E+03  0.17150670764E+03  0.47000000000E+01 0. -1.
         13    1    4    4    0    0  0.53396871310E+02 -0.67163910497E+00 -0.23013930092E+03  0.23625362388E+03  0.00000000000E+00 0. -1.
        -14    1    4    4    0    0 -0.26193793084E+02  0.18785524604E+02 -0.15537381234E+03  0.15868217383E+03  0.00000000000E+00 0.  1.
         -5    1    3    3    0  504  0.45511446135E+02  0.13254550675E+03 -0.28841696817E+03  0.32069618117E+03  0.47000000000E+01 0.  1.
<mgrwt>
<rscale>  2 0.24067888E+03</rscale>
<asrwt>0</asrwt>
<pdfrwt beam="1">  1       21 0.73543982E-02 0.24072261E+03</pdfrwt>
<pdfrwt beam="2">  1       21 0.18946045E+00 0.24072261E+03</pdfrwt>
<totfact> 0.21139852E+04</totfact>
</mgrwt>
</event>
<event>
12    1  0.2791583E-001  0.2071102E+03  0.7546771E-02  0.1144047E+00
         21   -1    0    0  502  503  0.00000000000E+00  0.00000000000E+00  0.53607626621E+02  0.53607626621E+02  0.00000000000E+00 0. -1.
         21   -1    0    0  503  504 -0.00000000000E+00 -0.00000000000E+00 -0.11355984330E+04  0.11355984330E+04  0.00000000000E+00 0. -1.
         -6    2    1    2    0  504  0.10557126646E+03  0.39093727607E+02 -0.86652355350E+03  0.89093081324E+03  0.17384197817E+03 0.  0.
        -24    2    3    3    0    0  0.10862787655E+03  0.83966353184E+02 -0.58334935913E+03  0.60416852537E+03  0.76633988645E+02 0.  0.
          6    2    1    2  502    0 -0.10557126646E+03 -0.39093727607E+02 -0.21546725290E+03  0.29827524640E+03  0.17282469066E+03 0.  0.
         24    2    5    5    0    0 -0.11970518822E+02 -0.68869455438E+02 -0.93494028664E+02  0.14159962176E+03  0.80143772513E+02 0.  0.
          2    1    6    6  501    0 -0.45580121907E+02 -0.49615463458E+02 -0.63861815904E+02  0.92830885258E+02  0.00000000000E+00 0. -1.
         -1    1    6    6    0  501  0.33609603084E+02 -0.19253991980E+02 -0.29632212760E+02  0.48768736499E+02  0.00000000000E+00 0.  1.
          5    1    5    5  502    0 -0.93600747642E+02  0.29775727830E+02 -0.12197322424E+03  0.15667562465E+03  0.47000000000E+01 0. -1.
         11    1    4    4    0    0  0.30080323148E+02  0.23823786698E+01 -0.45993083333E+02  0.55007865649E+02  0.00000000000E+00 0. -1.
        -12    1    4    4    0    0  0.78547553401E+02  0.81583974514E+02 -0.53735627580E+03  0.54916065972E+03  0.00000000000E+00 0.  1.
         -5    1    3    3    0  504 -0.30566100849E+01 -0.44872625576E+02 -0.28317419437E+03  0.28676228787E+03  0.47000000000E+01 0.  1.
<mgrwt>
<rscale>  2 0.20689661E+03</rscale>
<asrwt>0</asrwt>
<pdfrwt beam="1">  1       21 0.82473277E-02 0.20711022E+03</pdfrwt>
<pdfrwt beam="2">  1       21 0.17470744E+00 0.20711022E+03</pdfrwt>
<totfact> 0.22290324E+04</totfact>
</mgrwt>
</event>
<event>
12    1  0.2791583E-001  0.2182930E+03  0.7546771E-02  0.1135224E+00
         21   -1    0    0  502  503  0.00000000000E+00  0.00000000000E+00  0.77761373081E+03  0.77761373081E+03  0.00000000000E+00 0.  1.
         21   -1    0    0  503  504 -0.00000000000E+00 -0.00000000000E+00 -0.79843776239E+02  0.79843776239E+02  0.00000000000E+00 0. -1.
         -6    2    1    2    0  504  0.12828117586E+03  0.32898408066E+02  0.14184427544E+03  0.26032988819E+03  0.17353237991E+03 0.  0.
        -24    2    3    3    0    0  0.16106027870E+03  0.14674775781E+02  0.10675356069E+03  0.20875451986E+03  0.77629662017E+02 0.  0.
          6    2    1    2  502    0 -0.12828117586E+03 -0.32898408066E+02  0.55592567913E+03  0.59712761886E+03  0.17311749524E+03 0.  0.
         24    2    5    5    0    0 -0.13968632327E+03 -0.72282429231E+02  0.45240645677E+03  0.48568481780E+03  0.80505413668E+02 0.  0.
          4    1    6    6  501    0 -0.11368621962E+03 -0.49199862838E+02  0.42095044113E+03  0.43879887981E+03  0.00000000000E+00 0. -1.
         -3    1    6    6    0  501 -0.26000103648E+02 -0.23082566393E+02  0.31456015632E+02  0.46885937982E+02  0.00000000000E+00 0.  1.
          5    1    5    5  502    0  0.11405147407E+02  0.39384021166E+02  0.10351922236E+03  0.11144280106E+03  0.47000000000E+01 0. -1.
         11    1    4    4    0    0  0.79315518403E+02 -0.31010780903E+02  0.42437173832E+02  0.95150058931E+02  0.00000000000E+00 0. -1.
        -12    1    4    4    0    0  0.81744760293E+02  0.45685556683E+02  0.64316386862E+02  0.11360446093E+03  0.00000000000E+00 0.  1.
         -5    1    3    3    0  504 -0.32779102836E+02  0.18223632285E+02  0.35090714751E+02  0.51575368327E+02  0.47000000000E+01 0.  1.
<mgrwt>
<rscale>  2 0.21821058E+03</rscale>
<asrwt>0</asrwt>
<pdfrwt beam="1">  1       21 0.11963288E+00 0.21829304E+03</pdfrwt>
<pdfrwt beam="2">  1       21 0.12283658E-01 0.21829304E+03</pdfrwt>
<totfact> 0.29507626E+04</totfact>
</mgrwt>
</event>
<event>
12    1  0.2791583E-001  0.2265621E+03  0.7546771E-02  0.1129594E+00
         21   -1    0    0  502  503  0.00000000000E+00  0.00000000000E+00  0.66156481638E+03  0.66156481638E+03  0.00000000000E+00 0. -1.
         21   -1    0    0  503  504 -0.00000000000E+00 -0.00000000000E+00 -0.33543449908E+03  0.33543449908E+03  0.00000000000E+00 0. -1.
         -6    2    1    2    0  504  0.13832127563E+03 -0.41045282181E+02 -0.27504420365E+03  0.35454995189E+03  0.17099375411E+03 0.  0.
        -24    2    3    3    0    0  0.11320507984E+03 -0.46868540160E+02 -0.28953135009E+03  0.32460498509E+03  0.80795689860E+02 0.  0.
          6    2    1    2  502    0 -0.13832127563E+03  0.41045282181E+02  0.60117452095E+03  0.64244936356E+03  0.17467939096E+03 0.  0.
         24    2    5    5    0    0 -0.16051933041E+03  0.67876730569E+02  0.51146829249E+03  0.54610634263E+03  0.79111423010E+02 0.  0.
          4    1    6    6  501    0 -0.13351314430E+03  0.39404716983E+02  0.46445071616E+03  0.48486385631E+03  0.00000000000E+00 0. -1.
         -3    1    6    6    0  501 -0.27006186115E+02  0.28472013586E+02  0.47017576334E+02  0.61242486318E+02  0.00000000000E+00 0.  1.
          5    1    5    5  502    0  0.22198054778E+02 -0.26831448388E+02  0.89706228456E+02  0.96343020932E+02  0.47000000000E+01 0. -1.
         13    1    4    4    0    0  0.11872777560E+03 -0.22138590160E+02 -0.25009049603E+03  0.27772586858E+03  0.00000000000E+00 0. -1.
        -14    1    4    4    0    0 -0.55226957631E+01 -0.24729950000E+02 -0.39440854060E+02  0.46879116507E+02  0.00000000000E+00 0.  1.
         -5    1    3    3    0  504  0.25116195794E+02  0.58232579793E+01  0.14487146446E+02  0.29944966803E+02  0.47000000000E+01 0.  1.
<mgrwt>
<rscale>  2 0.22585142E+03</rscale>
<asrwt>0</asrwt>
<pdfrwt beam="1">  1       21 0.10177920E+00 0.22656209E+03</pdfrwt>
<pdfrwt beam="2">  1       21 0.51605308E-01 0.22656209E+03</pdfrwt>
<totfact> 0.27302464E+03</totfact>
</mgrwt>
</event>
<event>
12    1  0.2791583E-001  0.3445474E+03  0.7546771E-02  0.1064907E+00
         21   -1    0    0  502  503  0.00000000000E+00  0.00000000000E+00  0.46134157947E+03  0.46134157947E+03  0.00000000000E+00 0.  1.
         21   -1    0    0  503  504 -0.00000000000E+00 -0.00000000000E+00 -0.27673572653E+03  0.27673572653E+03  0.00000000000E+00 0. -1.
         -6    2    1    2    0  504 -0.13049148389E+03  0.26789344798E+03 -0.59729487350E+01  0.34459912459E+03  0.17296807136E+03 0.  0.
        -24    2    3    3    0    0 -0.10305036597E+02  0.48615533053E+02 -0.59655046353E+01  0.94499792035E+02  0.80155845800E+02 0.  0.
          6    2    1    2  502    0  0.13049148389E+03 -0.26789344798E+03  0.19057880167E+03  0.39347818141E+03  0.17236552079E+03 0.  0.
         24    2    5    5    0    0  0.66047759784E+02 -0.98243298223E+02  0.48950354511E+02  0.16322859088E+03  0.10116018712E+03 0.  0.
          4    1    6    6  501    0  0.70876796914E+02 -0.51232970866E+02 -0.96067487352E+01  0.87980834650E+02  0.00000000000E+00 0. -1.
         -3    1    6    6    0  501 -0.48290371299E+01 -0.47010327357E+02  0.58557103246E+02  0.75247756235E+02  0.00000000000E+00 0.  1.
          5    1    5    5  502    0  0.64443724102E+02 -0.16965014976E+03  0.14162844716E+03  0.23024959052E+03  0.47000000000E+01 0. -1.
         13    1    4    4    0    0 -0.19162455694E+02 -0.16590673272E+02  0.92092247605E+01  0.26967757944E+02  0.00000000000E+00 0. -1.
        -14    1    4    4    0    0  0.88574190968E+01  0.65206206324E+02 -0.15174729396E+02  0.67532034091E+02  0.00000000000E+00 0.  1.
         -5    1    3    3    0  504 -0.12018644729E+03  0.21927791493E+03 -0.74440996809E-02  0.25009933255E+03  0.47000000000E+01 0.  1.
<mgrwt>
<rscale>  2 0.34447181E+03</rscale>
<asrwt>0</asrwt>
<pdfrwt beam="1">  1       21 0.70975627E-01 0.34454736E+03</pdfrwt>
<pdfrwt beam="2">  1       21 0.42574727E-01 0.34454736E+03</pdfrwt>
<totfact> 0.87971674E+03</totfact>
</mgrwt>
</event>
<event>
12    1  0.2791583E-001  0.1975116E+03  0.7546771E-02  0.1152740E+00
         21   -1    0    0  502  503  0.00000000000E+00  0.00000000000E+00  0.49610716413E+02  0.49610716413E+02  0.00000000000E+00 0.  1.
         21   -1    0    0  503  504 -0.00000000000E+00 -0.00000000000E+00 -0.78350421920E+03  0.78350421920E+03  0.00000000000E+00 0.  1.
         -6    2    1    2    0  504 -0.12599648980E+02 -0.95822257969E+02 -0.41750072086E+03  0.46013339878E+03  0.16755666647E+03 0.  0.
        -24    2    3    3    0    0 -0.12859600176E+02 -0.10007967812E+03 -0.17521249917E+03  0.21776206060E+03  0.80867693687E+02 0.  0.
          6    2    1    2  502    0  0.12599648980E+02  0.95822257969E+02 -0.31639278193E+03  0.37298153683E+03  0.17225033552E+03 0.  0.
         24    2    5    5    0    0  0.82057973512E+01  0.10264473035E+03 -0.12204980228E+03  0.17841243394E+03  0.79571141560E+02 0.  0.
          4    1    6    6  501    0  0.29893118167E+02  0.53927644645E+02 -0.10616364230E+03  0.12277014424E+03  0.00000000000E+00 0. -1.
         -3    1    6    6    0  501 -0.21687320816E+02  0.48717085704E+02 -0.15886159975E+02  0.55642289695E+02  0.00000000000E+00 0.  1.
          5    1    5    5  502    0  0.43938516292E+01 -0.68224723805E+01 -0.19434297965E+03  0.19456910290E+03  0.47000000000E+01 0. -1.
         11    1    4    4    0    0 -0.34189503681E+02 -0.10011379503E+03 -0.15896391008E+03  0.19094820980E+03  0.00000000000E+00 0. -1.
        -12    1    4    4    0    0  0.21329903504E+02  0.34116906586E-01 -0.16248589086E+02  0.26813850801E+02  0.00000000000E+00 0.  1.
         -5    1    3    3    0  504  0.25995119606E+00  0.42574201548E+01 -0.24228822169E+03  0.24237133818E+03  0.47000000000E+01 0.  1.
<mgrwt>
<rscale>  2 0.19648368E+03</rscale>
<asrwt>0</asrwt>
<pdfrwt beam="1">  1       21 0.76324182E-02 0.19751161E+03</pdfrwt>
<pdfrwt beam="2">  1       21 0.12053911E+00 0.19751161E+03</pdfrwt>
<totfact> 0.67848200E+04</totfact>
</mgrwt>
</event>
<event>
12    1  0.2791583E-001  0.1752525E+03  0.7546771E-02  0.1172510E+00
         21   -1    0    0  502  503  0.00000000000E+00  0.00000000000E+00  0.99013199326E+02  0.99013199326E+02  0.00000000000E+00 0. -1.
         21   -1    0    0  503  504 -0.00000000000E+00 -0.00000000000E+00 -0.42431730352E+03  0.42431730352E+03  0.00000000000E+00 0. -1.
         -6    2    1    2    0  504 -0.20228729181E+02 -0.32955451989E+02 -0.29844258033E+03  0.34603141182E+03  0.17080544756E+03 0.  0.
        -24    2    3    3    0    0  0.18509620286E+02  0.11463163907E+02 -0.27467505648E+03  0.28230811665E+03  0.61461173971E+02 0.  0.
          6    2    1    2  502    0  0.20228729181E+02  0.32955451989E+02 -0.26861523868E+02  0.17729909103E+03  0.17093321185E+03 0.  0.
         24    2    5    5    0    0  0.48095229128E+02 -0.36272752130E+02 -0.17469658117E+02  0.10193740841E+03  0.80356596904E+02 0.  0.
          2    1    6    6  501    0  0.68449349410E+02 -0.40514295890E+02 -0.12020824193E+02  0.80443904806E+02  0.00000000000E+00 0. -1.
         -1    1    6    6    0  501 -0.20354120282E+02  0.42415437604E+01 -0.54488339243E+01  0.21493503601E+02  0.00000000000E+00 0.  1.
          5    1    5    5  502    0 -0.27866499947E+02  0.69228204119E+02 -0.93918657512E+01  0.75361682619E+02  0.47000000000E+01 0. -1.
         13    1    4    4    0    0  0.14439508517E+02 -0.21261670676E+02 -0.18471110501E+03  0.18649061735E+03  0.00000000000E+00 0. -1.
        -14    1    4    4    0    0  0.40701117682E+01  0.32724834583E+02 -0.89963951473E+02  0.95817499305E+02  0.00000000000E+00 0.  1.
         -5    1    3    3    0  504 -0.38738349466E+02 -0.44418615896E+02 -0.23767523850E+02  0.63723295171E+02  0.47000000000E+01 0.  1.
<mgrwt>
<rscale>  2 0.17522130E+03</rscale>
<asrwt>0</asrwt>
<pdfrwt beam="1">  1       21 0.15232800E-01 0.17525246E+03</pdfrwt>
<pdfrwt beam="2">  1       21 0.65279585E-01 0.17525246E+03</pdfrwt>
<totfact> 0.82953801E+04</totfact>
</mgrwt>
</event>
<event>
12    1  0.2791583E-001  0.2667838E+03  0.7546771E-02  0.1103245E+00
         21   -1    0    0  502  503  0.00000000000E+00  0.00000000000E+00  0.12681082552E+03  0.12681082552E+03  0.00000000000E+00 0.  1.
         21   -1    0    0  503  504 -0.00000000000E+00 -0.00000000000E+00 -0.70042023763E+03  0.70042023763E+03  0.00000000000E+00 0.  1.
         -6    2    1    2    0  504 -0.19842536865E+03  0.41540089542E+02 -0.47254455540E+03  0.54265268066E+03  0.17342251591E+03 0.  0.
        -24    2    3    3    0    0 -0.17153590225E+03  0.68721996703E+02 -0.45952985812E+03  0.50199100551E+03  0.81731270146E+02 0.  0.
          6    2    1    2  502    0  0.19842536865E+03 -0.41540089542E+02 -0.10106485671E+03  0.28457838249E+03  0.17225720466E+03 0.  0.
         24    2    5    5    0    0  0.16041215854E+03 -0.84717050780E+02 -0.10927515472E+03  0.22627955645E+03  0.79701561647E+02 0.  0.
          4    1    6    6  501    0  0.15388858270E+03 -0.95994362879E+02 -0.88638986075E+02  0.20187492029E+03  0.00000000000E+00 0. -1.
         -3    1    6    6    0  501  0.65235758399E+01  0.11277312099E+02 -0.20636168642E+02  0.24404636160E+02  0.00000000000E+00 0.  1.
          5    1    5    5  502    0  0.38013210108E+02  0.43176961238E+02  0.82102980035E+01  0.58298826041E+02  0.47000000000E+01 0. -1.
         11    1    4    4    0    0 -0.17209844097E+02  0.40350880134E+02 -0.78673231175E+02  0.90076909166E+02  0.00000000000E+00 0. -1.
        -12    1    4    4    0    0 -0.15432605815E+03  0.28371116569E+02 -0.38085662695E+03  0.41191409634E+03  0.00000000000E+00 0.  1.
         -5    1    3    3    0  504 -0.26889466403E+02 -0.27181907160E+02 -0.13014697277E+02  0.40661675144E+02  0.47000000000E+01 0.  1.
<mgrwt>
<rscale>  2 0.26659455E+03</rscale>
<asrwt>0</asrwt>
<pdfrwt beam="1">  1       21 0.19509358E-01 0.26678376E+03</pdfrwt>
<pdfrwt beam="2">  1       21 0.10775696E+00 0.26678376E+03</pdfrwt>
<totfact> 0.15906265E+04</totfact>
</mgrwt>
</event>
<event>
12    1  0.2791583E-001  0.1925584E+03  0.7546771E-02  0.1156333E+00
         21   -1    0    0  502  503  0.00000000000E+00  0.00000000000E+00  0.11522292885E+03  0.11522292885E+03  0.00000000000E+00 0. -1.
         21   -1    0    0  503  504 -0.00000000000E+00 -0.00000000000E+00 -0.48022453618E+03  0.48022453618E+03  0.00000000000E+00 0. -1.
         -6    2    1    2    0  504  0.80592077256E+02  0.19631152525E+02 -0.35437272741E+03  0.40330977181E+03  0.17377651464E+03 0.  0.
        -24    2    3    3    0    0  0.67432080028E+02 -0.40027735166E+02 -0.30443343677E+03  0.32426300618E+03  0.79482543697E+02 0.  0.
          6    2    1    2  502    0 -0.80592077256E+02 -0.19631152525E+02 -0.10628879914E+02  0.19213769321E+03  0.17298397324E+03 0.  0.
         24    2    5    5    0    0 -0.25899835322E+02 -0.42307924997E+02  0.48741008251E+02  0.10815941651E+03  0.82837259168E+02 0.  0.
          4    1    6    6  501    0 -0.24944574781E+02 -0.50024220972E+02 -0.28640284193E+01  0.55971931838E+02  0.00000000000E+00 0. -1.
         -3    1    6    6    0  501 -0.95526054144E+00  0.77162959758E+01  0.51605036670E+02  0.52187484669E+02  0.00000000000E+00 0.  1.
          5    1    5    5  502    0 -0.54692241934E+02  0.22676772472E+02 -0.59369888165E+02  0.83978276704E+02  0.47000000000E+01 0. -1.
         13    1    4    4    0    0  0.44450532085E+02 -0.42168808836E+02 -0.91728557253E+02  0.11030950302E+03  0.00000000000E+00 0. -1.
        -14    1    4    4    0    0  0.22981547943E+02  0.21410736703E+01 -0.21270487952E+03  0.21395350316E+03  0.00000000000E+00 0.  1.
         -5    1    3    3    0  504  0.13159997228E+02  0.59658887690E+02 -0.49939290641E+02  0.79046765634E+02  0.47000000000E+01 0.  1.
<mgrwt>
<rscale>  2 0.19237943E+03</rscale>
<asrwt>0</asrwt>
<pdfrwt beam="1">  1       21 0.17726604E-01 0.19255841E+03</pdfrwt>
<pdfrwt beam="2">  1       21 0.73880698E-01 0.19255841E+03</pdfrwt>
<totfact> 0.47489089E+04</totfact>
</mgrwt>
</event>
<event>
12    1  0.2791583E-001  0.2896126E+03  0.7546771E-02  0.1090688E+00
         21   -1    0    0  502  503  0.00000000000E+00  0.00000000000E+00  0.56559061913E+03  0.56559061913E+03  0.00000000000E+00 0.  1.
         21   -1    0    0  503  504 -0.00000000000E+00 -0.00000000000E+00 -0.27044567726E+03  0.27044567726E+03  0.00000000000E+00 0.  1.
         -6    2    1    2    0  504  0.22210237936E+03  0.63008522645E+02 -0.13411547893E+03  0.31821397684E+03  0.17312894768E+03 0.  0.
        -24    2    3    3    0    0  0.13121675451E+03  0.10607882814E+03 -0.93733727152E+02  0.20973345372E+03  0.82046057564E+02 0.  0.
          6    2    1    2  502    0 -0.22210237936E+03 -0.63008522645E+02  0.42926042080E+03  0.51782231955E+03  0.17485967208E+03 0.  0.
         24    2    5    5    0    0 -0.60488710241E+02 -0.70159280215E+02  0.23518976804E+03  0.26512562459E+03  0.79976003649E+02 0.  0.
          4    1    6    6  501    0  0.74014737660E+01 -0.42517305331E+01 -0.28265528163E+01  0.89915753491E+01  0.00000000000E+00 0. -1.
         -3    1    6    6    0  501 -0.67890184007E+02 -0.65907549681E+02  0.23801632085E+03  0.25613404924E+03  0.00000000000E+00 0.  1.
          5    1    5    5  502    0 -0.16161366912E+03  0.71507575696E+01  0.19407065276E+03  0.25269669496E+03  0.47000000000E+01 0. -1.
         11    1    4    4    0    0  0.73132227991E+02  0.10283060565E+02 -0.23464230164E+02  0.77489574801E+02  0.00000000000E+00 0. -1.
        -12    1    4    4    0    0  0.58084526520E+02  0.95795767572E+02 -0.70269496988E+02  0.13224387892E+03  0.00000000000E+00 0.  1.
         -5    1    3    3    0  504  0.90885624849E+02 -0.43070305493E+02 -0.40381751775E+02  0.10848052312E+03  0.47000000000E+01 0.  1.
<mgrwt>
<rscale>  2 0.28935181E+03</rscale>
<asrwt>0</asrwt>
<pdfrwt beam="1">  1       21 0.87013941E-01 0.28961258E+03</pdfrwt>
<pdfrwt beam="2">  1       21 0.41607028E-01 0.28961258E+03</pdfrwt>
<totfact> 0.59395297E+03</totfact>
</mgrwt>
</event>
<event>
12    1  0.2791583E-001  0.1990411E+03  0.7546771E-02  0.1150813E+00
         21   -1    0    0  502  503  0.00000000000E+00  0.00000000000E+00  0.51586034866E+03  0.51586034866E+03  0.00000000000E+00 0. -1.
         21   -1    0    0  503  504 -0.00000000000E+00 -0.00000000000E+00 -0.77938871089E+02  0.77938871089E+02  0.00000000000E+00 0.  1.
         -6    2    1    2    0  504 -0.79547670739E+02  0.56686283895E+02  0.17687876881E+03  0.26627704431E+03  0.17342490815E+03 0.  0.
        -24    2    3    3    0    0 -0.80619693986E+02 -0.24191091538E+02  0.12436097199E+03  0.16972390830E+03  0.79093676893E+02 0.  0.
          6    2    1    2  502    0  0.79547670739E+02 -0.56686283895E+02  0.26104270876E+03  0.32752217544E+03  0.17200672344E+03 0.  0.
         24    2    5    5    0    0  0.11678614690E+03 -0.58827530942E+02  0.23695981191E+03  0.28287505945E+03  0.82271892477E+02 0.  0.
          2    1    6    6  501    0  0.64089205841E+02 -0.66913226592E+02  0.19179352173E+03  0.21300131731E+03  0.00000000000E+00 0. -1.
         -1    1    6    6    0  501  0.52696941063E+02  0.80856956499E+01  0.45166290175E+02  0.69873742133E+02  0.00000000000E+00 0.  1.
          5    1    5    5  502    0 -0.37238476164E+02  0.21412470474E+01  0.24082896851E+02  0.44647115995E+02  0.47000000000E+01 0. -1.
         11    1    4    4    0    0 -0.21683523101E+02  0.19854519365E+02  0.76488479101E+02  0.81944277094E+02  0.00000000000E+00 0. -1.
        -12    1    4    4    0    0 -0.58936170885E+02 -0.44045610903E+02  0.47872492891E+02  0.87779631202E+02  0.00000000000E+00 0.  1.
         -5    1    3    3    0  504  0.10720232467E+01  0.80877375432E+02  0.52517796819E+02  0.96553136010E+02  0.47000000000E+01 0.  1.
<mgrwt>
<rscale>  2 0.19873178E+03</rscale>
<asrwt>0</asrwt>
<pdfrwt beam="1">  1       21 0.79363128E-01 0.19904112E+03</pdfrwt>
<pdfrwt beam="2">  1       21 0.11990596E-01 0.19904112E+03</pdfrwt>
<totfact> 0.82062704E+04</totfact>
</mgrwt>
</event>
<event>
12    1  0.2791583E-001  0.2123975E+03  0.7546771E-02  0.1140179E+00
         21   -1    0    0  502  503  0.00000000000E+00  0.00000000000E+00  0.14166855542E+03  0.14166855542E+03  0.00000000000E+00 0. -1.
         21   -1    0    0  503  504 -0.00000000000E+00 -0.00000000000E+00 -0.16291420181E+04  0.16291420181E+04  0.00000000000E+00 0. -1.
         -6    2    1    2    0  504  0.10642839208E+03 -0.60903788555E+02 -0.15399148597E+04  0.15544936361E+04  0.17342553343E+03 0.  0.
        -24    2    3    3    0    0  0.59519518521E+02  0.32830304134E+02 -0.65318981508E+03  0.66158271266E+03  0.80089632379E+02 0.  0.
          6    2    1    2  502    0 -0.10642839208E+03  0.60903788555E+02  0.52441396987E+02  0.21631693738E+03  0.17031336759E+03 0.  0.
         24    2    5    5    0    0 -0.13175234329E+02  0.46087719195E+02  0.80719893871E+02  0.11763851660E+03  0.70890441247E+02 0.  0.
          4    1    6    6  501    0 -0.30780205763E+02  0.53610702081E+02  0.75912632074E+02  0.97899214261E+02  0.00000000000E+00 0. -1.
         -3    1    6    6    0  501  0.17604971434E+02 -0.75229828862E+01  0.48072617972E+01  0.19739302336E+02  0.00000000000E+00 0.  1.
          5    1    5    5  502    0 -0.93253157755E+02  0.14816069360E+02 -0.28278496884E+02  0.98678420785E+02  0.47000000000E+01 0. -1.
         13    1    4    4    0    0  0.37851158215E+02  0.24568031772E+01 -0.55880754319E+03  0.56009339969E+03  0.00000000000E+00 0. -1.
        -14    1    4    4    0    0  0.21668360306E+02  0.30373500957E+02 -0.94382271895E+02  0.10148931297E+03  0.00000000000E+00 0.  1.
         -5    1    3    3    0  504  0.46908873564E+02 -0.93734092689E+02 -0.88672504460E+03  0.89291092349E+03  0.47000000000E+01 0.  1.
<mgrwt>
<rscale>  2 0.21176127E+03</rscale>
<asrwt>0</asrwt>
<pdfrwt beam="1">  1       21 0.21795163E-01 0.21239748E+03</pdfrwt>
<pdfrwt beam="2">  1       21 0.25063723E+00 0.21239748E+03</pdfrwt>
<totfact> 0.12657590E+03</totfact>
</mgrwt>
</event>
<event>
12    1  0.2791583E-001  0.1778702E+03  0.7546771E-02  0.1170047E+00
         21   -1    0    0  502  503  0.00000000000E+00  0.00000000000E+00  0.32189969614E+02  0.32189969614E+02  0.00000000000E+00 0. -1.
         21   -1    0    0  503  504 -0.00000000000E+00 -0.00000000000E+00 -0.15350507862E+04  0.15350507862E+04  0.00000000000E+00 0. -1.
         -6    2    1    2    0  504 -0.39322054178E+02 -0.10656829802E+02 -0.12221011344E+04  0.12348798079E+04  0.17244467281E+03 0.  0.
        -24    2    3    3    0    0  0.16116497013E+02 -0.11973258633E+02 -0.10571428087E+04  0.10607864273E+04  0.85520909242E+02 0.  0.
          6    2    1    2  502    0  0.39322054178E+02  0.10656829802E+02 -0.28075968217E+03  0.33236094794E+03  0.17314158547E+03 0.  0.
         24    2    5    5    0    0  0.66967065638E+02  0.16632906743E+01 -0.83376170840E+02  0.13279273667E+03  0.78708135750E+02 0.  0.
          4    1    6    6  501    0 -0.11653625951E+02 -0.12349236043E+02  0.48954536803E+00  0.16986767889E+02  0.00000000000E+00 0. -1.
         -3    1    6    6    0  501  0.78620691589E+02  0.14012526717E+02 -0.83865716209E+02  0.11580596878E+03  0.00000000000E+00 0.  1.
          5    1    5    5  502    0 -0.27645011460E+02  0.89935391277E+01 -0.19738351133E+03  0.19956821127E+03  0.47000000000E+01 0. -1.
         13    1    4    4    0    0  0.20882459761E+02 -0.38472781468E+02 -0.30120989534E+03  0.30437416627E+03  0.00000000000E+00 0. -1.
        -14    1    4    4    0    0 -0.47659627479E+01  0.26499522835E+02 -0.75593291336E+03  0.75641226101E+03  0.00000000000E+00 0.  1.
         -5    1    3    3    0  504 -0.55438551191E+02  0.13164288310E+01 -0.16495832575E+03  0.17409338063E+03  0.47000000000E+01 0.  1.
<mgrwt>
<rscale>  2 0.17770036E+03</rscale>
<asrwt>0</asrwt>
<pdfrwt beam="1">  1       21 0.49523039E-02 0.17787018E+03</pdfrwt>
<pdfrwt beam="2">  1       21 0.23616162E+00 0.17787018E+03</pdfrwt>
<totfact> 0.22233943E+04</totfact>
</mgrwt>
</event>
<event>
12    1  0.2791583E-001  0.2376330E+03  0.7546771E-02  0.1121413E+00
         21   -1    0    0  502  503  0.00000000000E+00  0.00000000000E+00  0.39970437625E+02  0.39970437625E+02  0.00000000000E+00 0.  1.
         21   -1    0    0  503  504 -0.00000000000E+00 -0.00000000000E+00 -0.14131173855E+04  0.14131173855E+04  0.00000000000E+00 0. -1.
         -6    2    1    2    0  504 -0.15739252596E+03 -0.40301838503E+02 -0.71048941293E+03  0.74917598996E+03  0.17341514533E+03 0.  0.
        -24    2    3    3    0    0 -0.25307967805E+02 -0.16867808392E+02 -0.13802716240E+03  0.16118738246E+03  0.77491022116E+02 0.  0.
          6    2    1    2  502    0  0.15739252596E+03  0.40301838503E+02 -0.66265753493E+03  0.70391183316E+03  0.17314795649E+03 0.  0.
         24    2    5    5    0    0  0.14253295113E+02 -0.14578550803E+01 -0.25427141235E+03  0.26913139829E+03  0.87019978443E+02 0.  0.
          2    1    6    6  501    0  0.15232603007E+02  0.18755187218E+02 -0.24613846240E+03  0.24732151526E+03  0.00000000000E+00 0. -1.
         -1    1    6    6    0  501 -0.97930789393E+00 -0.20213042298E+02 -0.81329499508E+01  0.21809883031E+02  0.00000000000E+00 0.  1.
          5    1    5    5  502    0  0.14313923085E+03  0.41759693583E+02 -0.40838612259E+03  0.43478043486E+03  0.47000000000E+01 0. -1.
         13    1    4    4    0    0 -0.99409516027E+01 -0.28476644650E+02 -0.13867523585E+03  0.14191745082E+03  0.00000000000E+00 0. -1.
        -14    1    4    4    0    0 -0.15367016203E+02  0.11608836258E+02  0.64807344516E+00  0.19269931641E+02  0.00000000000E+00 0.  1.
         -5    1    3    3    0  504 -0.13208455816E+03 -0.23434030111E+02 -0.57246225053E+03  0.58798860750E+03  0.47000000000E+01 0.  1.
<mgrwt>
<rscale>  2 0.23758429E+03</rscale>
<asrwt>0</asrwt>
<pdfrwt beam="1">  1       21 0.61492986E-02 0.23763303E+03</pdfrwt>
<pdfrwt beam="2">  1       21 0.21740266E+00 0.23763303E+03</pdfrwt>
<totfact> 0.19081280E+04</totfact>
</mgrwt>
</event>
<event>
12    1  0.2791583E-001  0.2242318E+03  0.7546771E-02  0.1130902E+00
         21   -1    0    0  502  503  0.00000000000E+00  0.00000000000E+00  0.53907133928E+02  0.53907133928E+02  0.00000000000E+00 0.  1.
         21   -1    0    0  503  504 -0.00000000000E+00 -0.00000000000E+00 -0.11999949653E+04  0.11999949653E+04  0.00000000000E+00 0.  1.
         -6    2    1    2    0  504 -0.13180670925E+03  0.48417714067E+02 -0.86990053105E+03  0.89815033129E+03  0.17386719081E+03 0.  0.
        -24    2    3    3    0    0 -0.26801519500E+02 -0.17295095808E+02 -0.15654297496E+03  0.17410243503E+03  0.69199082986E+02 0.  0.
          6    2    1    2  502    0  0.13180670925E+03 -0.48417714067E+02 -0.27618730035E+03  0.35575176797E+03  0.17482165740E+03 0.  0.
         24    2    5    5    0    0  0.49082272479E+02 -0.90749360208E+02 -0.16938444578E+03  0.21410346953E+03  0.80651654315E+02 0.  0.
          2    1    6    6  501    0 -0.15354930414E+02 -0.13111698180E+02 -0.68540171237E+02  0.71452400872E+02  0.00000000000E+00 0. -1.
         -1    1    6    6    0  501  0.64437202893E+02 -0.77637662028E+02 -0.10084427454E+03  0.14265106866E+03  0.00000000000E+00 0.  1.
          5    1    5    5  502    0  0.82724436774E+02  0.42331646141E+02 -0.10680285457E+03  0.14164829843E+03  0.47000000000E+01 0. -1.
         11    1    4    4    0    0 -0.11601580836E+01 -0.15200049177E+02 -0.14517968848E+03  0.14597783876E+03  0.00000000000E+00 0. -1.
        -12    1    4    4    0    0 -0.25641361416E+02 -0.20950466313E+01 -0.11363286485E+02  0.28124596271E+02  0.00000000000E+00 0.  1.
         -5    1    3    3    0  504 -0.10500518975E+03  0.65712809875E+02 -0.71335755609E+03  0.72404789626E+03  0.47000000000E+01 0.  1.
<mgrwt>
<rscale>  2 0.22404572E+03</rscale>
<asrwt>0</asrwt>
<pdfrwt beam="1">  1       21 0.82934064E-02 0.22423179E+03</pdfrwt>
<pdfrwt beam="2">  1       21 0.18461458E+00 0.22423179E+03</pdfrwt>
<totfact> 0.18665536E+04</totfact>
</mgrwt>
</event>
<event>
12    1  0.2791583E-001  0.2560447E+03  0.7546771E-02  0.1111012E+00
         21   -1    0    0  502  503  0.00000000000E+00  0.00000000000E+00  0.96182274564E+03  0.96182274564E+03  0.00000000000E+00 0. -1.
         21   -1    0    0  503  504 -0.00000000000E+00 -0.00000000000E+00 -0.66251063900E+02  0.66251063900E+02  0.00000000000E+00 0.  1.
         -6    2    1    2    0  504  0.18407979924E+03 -0.42210830056E+02  0.39187890075E+03  0.46303816242E+03  0.15864469845E+03 0.  0.
        -24    2    3    3    0    0  0.42614342870E+02  0.30280688971E+01  0.20797268481E+03  0.22660081431E+03  0.79184215574E+02 0.  0.
          6    2    1    2  502    0 -0.18407979924E+03  0.42210830056E+02  0.50369278098E+03  0.56503564711E+03  0.17289227347E+03 0.  0.
         24    2    5    5    0    0 -0.83061915807E+02  0.84958953986E+02  0.24632299103E+03  0.28522622330E+03  0.81004177832E+02 0.  0.
          2    1    6    6  501    0 -0.77508364119E+02  0.76080915885E+02  0.13432558493E+03  0.17274031098E+03  0.00000000000E+00 0. -1.
         -1    1    6    6    0  501 -0.55535516882E+01  0.88780381008E+01  0.11199740610E+03  0.11248591232E+03  0.00000000000E+00 0.  1.
          5    1    5    5  502    0 -0.10101788344E+03 -0.42748123930E+02  0.25736978995E+03  0.27980942381E+03  0.47000000000E+01 0. -1.
         13    1    4    4    0    0  0.29435028238E+02  0.40605464063E+02  0.11620822548E+03  0.12656846474E+03  0.00000000000E+00 0. -1.
        -14    1    4    4    0    0  0.13179314632E+02 -0.37577395166E+02  0.91764459337E+02  0.10003234956E+03  0.00000000000E+00 0.  1.
         -5    1    3    3    0  504  0.14146545637E+03 -0.45238898953E+02  0.18390621594E+03  0.23643734812E+03  0.47000000000E+01 0.  1.
<mgrwt>
<rscale>  2 0.25366247E+03</rscale>
<asrwt>0</asrwt>
<pdfrwt beam="1">  1       21 0.14797272E+00 0.25604465E+03</pdfrwt>
<pdfrwt beam="2">  1       21 0.10192472E-01 0.25604465E+03</pdfrwt>
<totfact> 0.23419568E+04</totfact>
</mgrwt>
</event>
<event>
12    1  0.2791583E-001  0.3619035E+03  0.7546771E-02  0.1057855E+00
         21   -1    0    0  502  503  0.00000000000E+00  0.00000000000E+00  0.39944744795E+03  0.39944744795E+03  0.00000000000E+00 0.  1.
         21   -1    0    0  503  504 -0.00000000000E+00 -0.00000000000E+00 -0.53581895154E+03  0.53581895154E+03  0.00000000000E+00 0.  1.
         -6    2    1    2    0  504 -0.28360333748E+03 -0.14026704509E+03 -0.35962432631E+03  0.51004183438E+03  0.17523504151E+03 0.  0.
        -24    2    3    3    0    0 -0.21858311774E+03 -0.11523817162E+03 -0.17499342612E+03  0.31264696923E+03  0.77891030447E+02 0.  0.
          6    2    1    2  502    0  0.28360333748E+03  0.14026704509E+03  0.22325282272E+03  0.42522456511E+03  0.17569408343E+03 0.  0.
         24    2    5    5    0    0  0.28772606463E+03  0.10014353548E+03  0.16917172600E+03  0.35759507506E+03  0.80250538087E+02 0.  0.
          2    1    6    6  501    0  0.10636104243E+02 -0.12019488629E+02  0.70210886851E+01  0.17518290632E+02  0.00000000000E+00 0. -1.
         -1    1    6    6    0  501  0.27708996039E+03  0.11216302411E+03  0.16215063732E+03  0.34007678443E+03  0.00000000000E+00 0.  1.
          5    1    5    5  502    0 -0.41227271491E+01  0.40123509601E+02  0.54081096722E+02  0.67629490051E+02  0.47000000000E+01 0. -1.
         11    1    4    4    0    0 -0.35479785897E+02 -0.48625880890E+02 -0.66251457327E+02  0.89512832028E+02  0.00000000000E+00 0. -1.
        -12    1    4    4    0    0 -0.18310333184E+03 -0.66612290732E+02 -0.10874196880E+03  0.22313413720E+03  0.00000000000E+00 0.  1.
         -5    1    3    3    0  504 -0.65020219745E+02 -0.25028873464E+02 -0.18463090019E+03  0.19739486515E+03  0.47000000000E+01 0.  1.
<mgrwt>
<rscale>  2 0.36184778E+03</rscale>
<asrwt>0</asrwt>
<pdfrwt beam="1">  1       21 0.61453453E-01 0.36190345E+03</pdfrwt>
<pdfrwt beam="2">  1       21 0.82433685E-01 0.36190345E+03</pdfrwt>
<totfact> 0.28477301E+03</totfact>
</mgrwt>
</event>
<event>
12    1  0.2791583E-001  0.2199373E+03  0.7546771E-02  0.1134139E+00
         21   -1    0    0  502  503  0.00000000000E+00  0.00000000000E+00  0.35359757728E+02  0.35359757728E+02  0.00000000000E+00 0.  1.
         21   -1    0    0  503  504 -0.00000000000E+00 -0.00000000000E+00 -0.18118174371E+04  0.18118174371E+04  0.00000000000E+00 0.  1.
         -6    2    1    2    0  504  0.34231751615E+02 -0.12958510881E+03 -0.13472031605E+04  0.13648579546E+04  0.17296464185E+03 0.  0.
        -24    2    3    3    0    0 -0.22378197035E+02 -0.11212965519E+03 -0.11571798442E+04  0.11657591603E+04  0.82797250985E+02 0.  0.
          6    2    1    2  502    0 -0.34231751615E+02  0.12958510881E+03 -0.42925451886E+03  0.48231924022E+03  0.17437974160E+03 0.  0.
         24    2    5    5    0    0  0.37700943506E+01  0.15403623434E+03 -0.34846851756E+03  0.38963447425E+03  0.81506691092E+02 0.  0.
          4    1    6    6  501    0  0.32517118421E+02  0.85311418489E+02 -0.25008756313E+03  0.26623146010E+03  0.00000000000E+00 0. -1.
         -3    1    6    6    0  501 -0.28747024071E+02  0.68724815848E+02 -0.98380954428E+02  0.12340301415E+03  0.00000000000E+00 0.  1.
          5    1    5    5  502    0 -0.38001845965E+02 -0.24451125530E+02 -0.80786001302E+02  0.92684765970E+02  0.47000000000E+01 0. -1.
         13    1    4    4    0    0 -0.52494549762E+02 -0.52542317280E+02 -0.58406470702E+03  0.58876816732E+03  0.00000000000E+00 0. -1.
        -14    1    4    4    0    0  0.30116352728E+02 -0.59587337905E+02 -0.57311513715E+03  0.57699099297E+03  0.00000000000E+00 0.  1.
         -5    1    3    3    0  504  0.56609948649E+02 -0.17455453622E+02 -0.19002331637E+03  0.19909879435E+03  0.47000000000E+01 0.  1.
<mgrwt>
<rscale>  2 0.21965667E+03</rscale>
<asrwt>0</asrwt>
<pdfrwt beam="1">  1       21 0.54399629E-02 0.21993728E+03</pdfrwt>
<pdfrwt beam="2">  1       21 0.27874114E+00 0.21993728E+03</pdfrwt>
<totfact> 0.10271314E+04</totfact>
</mgrwt>
</event>
<event>
12    1  0.2791583E-001  0.2316951E+03  0.7546771E-02  0.1126217E+00
         21   -1    0    0  502  503  0.00000000000E+00  0.00000000000E+00  0.22070116813E+03  0.22070116813E+03  0.00000000000E+00 0. -1.
         21   -1    0    0  503  504 -0.00000000000E+00 -0.00000000000E+00 -0.60907634262E+03  0.60907634262E+03  0.00000000000E+00 0. -1.
         -6    2    1    2    0  504  0.14476409021E+03 -0.28356614582E+02 -0.51843513351E+03  0.56785349805E+03  0.17866691969E+03 0.  0.
        -24    2    3    3    0    0  0.16692609015E+03 -0.44834325286E+02 -0.36335883818E+03  0.41026727859E+03  0.80094683369E+02 0.  0.
          6    2    1    2  502    0 -0.14476409021E+03  0.28356614582E+02  0.13005995902E+03  0.26192401269E+03  0.17299669385E+03 0.  0.
         24    2    5    5    0    0 -0.47115579399E+02  0.53507402597E+02  0.15654566073E+02  0.10935115228E+03  0.81422902861E+02 0.  0.
          2    1    6    6  501    0 -0.36437986925E+02 -0.14033938251E+02 -0.65607523108E+00  0.39052640739E+02  0.00000000000E+00 0. -1.
         -1    1    6    6    0  501 -0.10677592474E+02  0.67541340848E+02  0.16310641304E+02  0.70298511537E+02  0.00000000000E+00 0.  1.
          5    1    5    5  502    0 -0.97648510807E+02 -0.25150788016E+02  0.11440539295E+03  0.15257286042E+03  0.47000000000E+01 0. -1.
         11    1    4    4    0    0  0.12503806381E+03  0.52888058964E+01 -0.24198640015E+03  0.27243330694E+03  0.00000000000E+00 0. -1.
        -12    1    4    4    0    0  0.41888026340E+02 -0.50123131182E+02 -0.12137243803E+03  0.13783397166E+03  0.00000000000E+00 0.  1.
         -5    1    3    3    0  504 -0.22161999939E+02  0.16477710704E+02 -0.15507629533E+03  0.15758621946E+03  0.47000000000E+01 0.  1.
<mgrwt>
<rscale>  2 0.23060140E+03</rscale>
<asrwt>0</asrwt>
<pdfrwt beam="1">  1       21 0.33954026E-01 0.23169507E+03</pdfrwt>
<pdfrwt beam="2">  1       21 0.93704052E-01 0.23169507E+03</pdfrwt>
<totfact> 0.77813010E+03</totfact>
</mgrwt>
</event>
<event>
12    1  0.2791583E-001  0.2001555E+03  0.7546771E-02  0.1149808E+00
         21   -1    0    0  502  503  0.00000000000E+00  0.00000000000E+00  0.12632577086E+03  0.12632577086E+03  0.00000000000E+00 0.  1.
         21   -1    0    0  503  504 -0.00000000000E+00 -0.00000000000E+00 -0.46160326567E+03  0.46160326567E+03  0.00000000000E+00 0.  1.
         -6    2    1    2    0  504 -0.52208028037E+02  0.84859093424E+02 -0.33267283837E+03  0.38775663352E+03  0.17250288555E+03 0.  0.
        -24    2    3    3    0    0 -0.39346497106E+02  0.15993996342E+02 -0.29363777250E+03  0.30742203984E+03  0.80505989768E+02 0.  0.
          6    2    1    2  502    0  0.52208028037E+02 -0.84859093424E+02 -0.26046564323E+01  0.20017240301E+03  0.17359568763E+03 0.  0.
         24    2    5    5    0    0  0.26456303755E+02 -0.12293691286E+03 -0.21130643200E+02  0.15038913451E+03  0.79730591025E+02 0.  0.
          2    1    6    6  501    0  0.45242504860E+02 -0.10145941300E+03  0.56809470936E+01  0.11123475128E+03  0.00000000000E+00 0. -1.
         -1    1    6    6    0  501 -0.18786201105E+02 -0.21477499859E+02 -0.26811590293E+02  0.39154383231E+02  0.00000000000E+00 0.  1.
          5    1    5    5  502    0  0.25751724282E+02  0.38077819437E+02  0.18525986767E+02  0.49783268497E+02  0.47000000000E+01 0. -1.
         13    1    4    4    0    0  0.13440303591E+02 -0.69909431659E+01 -0.10361373761E+02  0.18354103443E+02  0.00000000000E+00 0. -1.
        -14    1    4    4    0    0 -0.52786800696E+02  0.22984939508E+02 -0.28327639874E+03  0.28906793640E+03  0.00000000000E+00 0.  1.
         -5    1    3    3    0  504 -0.12861530931E+02  0.68865097083E+02 -0.39035065869E+02  0.80334593678E+02  0.47000000000E+01 0.  1.
<mgrwt>
<rscale>  2 0.19991827E+03</rscale>
<asrwt>0</asrwt>
<pdfrwt beam="1">  1       21 0.19434734E-01 0.20015546E+03</pdfrwt>
<pdfrwt beam="2">  1       21 0.71015886E-01 0.20015546E+03</pdfrwt>
<totfact> 0.43540226E+04</totfact>
</mgrwt>
</event>
<event>
12    1  0.2791583E-001  0.2298324E+03  0.7546771E-02  0.1126910E+00
         21   -1    0    0  502  503  0.00000000000E+00  0.00000000000E+00  0.42814473007E+02  0.42814473007E+02  0.00000000000E+00 0.  1.
         21   -1    0    0  503  504 -0.00000000000E+00 -0.00000000000E+00 -0.13843974876E+04  0.13843974876E+04  0.00000000000E+00 0.  1.
         -6    2    1    2    0  504 -0.14983896105E+03 -0.18210756659E+02 -0.90864326401E+03  0.93704897966E+03  0.17217683682E+03 0.  0.
        -24    2    3    3    0    0 -0.16439972007E+03 -0.16458081068E+02 -0.90145184079E+03  0.92005209339E+03  0.81131355768E+02 0.  0.
          6    2    1    2  502    0  0.14983896105E+03  0.18210756659E+02 -0.43293975060E+03  0.49016298096E+03  0.17331928443E+03 0.  0.
         24    2    5    5    0    0  0.13186339811E+03  0.39920735905E+02 -0.20285253728E+03  0.25830815614E+03  0.81193169241E+02 0.  0.
          2    1    6    6  501    0 -0.91501925428E+01  0.12034166921E+02 -0.11579556600E+02  0.19042933810E+02  0.00000000000E+00 0. -1.
         -1    1    6    6    0  501  0.14101359065E+03  0.27886568984E+02 -0.19127298068E+03  0.23926522233E+03  0.00000000000E+00 0.  1.
          5    1    5    5  502    0  0.17975562942E+02 -0.21709979246E+02 -0.23008721332E+03  0.23185482482E+03  0.47000000000E+01 0. -1.
         11    1    4    4    0    0  0.36309250566E+01 -0.46655955806E+01 -0.45239607158E+01  0.74443011389E+01  0.00000000000E+00 0. -1.
        -12    1    4    4    0    0 -0.16803064513E+03 -0.11792485487E+02 -0.89692788007E+03  0.91260779225E+03  0.00000000000E+00 0.  1.
         -5    1    3    3    0  504  0.14560759020E+02 -0.17526755911E+01 -0.71914232213E+01  0.16996886271E+02  0.47000000000E+01 0.  1.
<mgrwt>
<rscale>  2 0.22961700E+03</rscale>
<asrwt>0</asrwt>
<pdfrwt beam="1">  1       21 0.65868409E-02 0.22983237E+03</pdfrwt>
<pdfrwt beam="2">  1       21 0.21298427E+00 0.22983237E+03</pdfrwt>
<totfact> 0.18158132E+04</totfact>
</mgrwt>
</event>
<event>
12    1  0.2791583E-001  0.2386789E+03  0.7546771E-02  0.1120753E+00
         21   -1    0    0  502  503  0.00000000000E+00  0.00000000000E+00  0.16091845886E+03  0.16091845886E+03  0.00000000000E+00 0. -1.
         21   -1    0    0  503  504 -0.00000000000E+00 -0.00000000000E+00 -0.38405423990E+03  0.38405423990E+03  0.00000000000E+00 0. -1.
         -6    2    1    2    0  504 -0.15742316744E+03  0.48347228900E+02 -0.34408919725E+02  0.24069414139E+03  0.17213421436E+03 0.  0.
        -24    2    3    3    0    0 -0.12908566213E+03  0.52563155733E+02 -0.85084458184E+02  0.18229132943E+03  0.81023269830E+02 0.  0.
          6    2    1    2  502    0  0.15742316744E+03 -0.48347228900E+02 -0.18872686132E+03  0.30427855737E+03  0.17276603862E+03 0.  0.
         24    2    5    5    0    0  0.12842482602E+03 -0.87777935306E+02 -0.95995556676E+02  0.19931728225E+03  0.79462760071E+02 0.  0.
          4    1    6    6  501    0  0.59385313064E+02 -0.76214406445E+01 -0.55407003397E+01  0.60128205740E+02  0.00000000000E+00 0. -1.
         -3    1    6    6    0  501  0.69039512954E+02 -0.80156494662E+02 -0.90454856336E+02  0.13918907651E+03  0.00000000000E+00 0.  1.
          5    1    5    5  502    0  0.28998341421E+02  0.39430706406E+02 -0.92731304646E+02  0.10496127512E+03  0.47000000000E+01 0. -1.
         11    1    4    4    0    0 -0.12326032497E+03  0.24263953998E+02 -0.87807093884E+02  0.15327078297E+03  0.00000000000E+00 0. -1.
        -12    1    4    4    0    0 -0.58253371575E+01  0.28299201735E+02  0.27226357001E+01  0.29020546463E+02  0.00000000000E+00 0.  1.
         -5    1    3    3    0  504 -0.28337505307E+02 -0.42159268325E+01  0.50675538459E+02  0.58402811955E+02  0.47000000000E+01 0.  1.
<mgrwt>
<rscale>  2 0.23856457E+03</rscale>
<asrwt>0</asrwt>
<pdfrwt beam="1">  1       21 0.24756686E-01 0.23867889E+03</pdfrwt>
<pdfrwt beam="2">  1       21 0.59085267E-01 0.23867889E+03</pdfrwt>
<totfact> 0.40421048E+04</totfact>
</mgrwt>
</event>
<event>
12    1  0.2791583E-001  0.1952992E+03  0.7546771E-02  0.1153830E+00
         21   -1    0    0  502  503  0.00000000000E+00  0.00000000000E+00  0.93535380933E+03  0.93535380933E+03  0.00000000000E+00 0. -1.
         21   -1    0    0  503  504 -0.00000000000E+00 -0.00000000000E+00 -0.49153468353E+02  0.49153468353E+02  0.00000000000E+00 0.  1.
         -6    2    1    2    0  504 -0.22821191431E+02 -0.88313432490E+02  0.23889230866E+03  0.30837899712E+03  0.17236009281E+03 0.  0.
        -24    2    3    3    0    0 -0.32348012565E+02 -0.11788810102E+03  0.23433537312E+03  0.27662561933E+03  0.81637417238E+02 0.  0.
          6    2    1    2  502    0  0.22821191431E+02  0.88313432490E+02  0.64730803232E+03  0.67612828056E+03  0.17268958838E+03 0.  0.
         24    2    5    5    0    0  0.40148031104E+02  0.69094132561E+02  0.21406778009E+03  0.24209048611E+03  0.79980781666E+02 0.  0.
          2    1    6    6  501    0  0.16870923350E+02 -0.16915615432E+02  0.48722025894E+02  0.54264186231E+02  0.00000000000E+00 0. -1.
         -1    1    6    6    0  501  0.23277107754E+02  0.86009747992E+02  0.16534575420E+03  0.18782629988E+03  0.00000000000E+00 0.  1.
          5    1    5    5  502    0 -0.17326839673E+02  0.19219299929E+02  0.43324025223E+03  0.43403779445E+03  0.47000000000E+01 0. -1.
         11    1    4    4    0    0 -0.99499616149E+01 -0.36070303450E+01 -0.40368891763E+01  0.11327350894E+02  0.00000000000E+00 0. -1.
        -12    1    4    4    0    0 -0.22398050950E+02 -0.11428107068E+03  0.23837226230E+03  0.26529826843E+03  0.00000000000E+00 0.  1.
         -5    1    3    3    0  504  0.95268211344E+01  0.29574668533E+02  0.45569355375E+01  0.31753377793E+02  0.47000000000E+01 0.  1.
<mgrwt>
<rscale>  2 0.19522630E+03</rscale>
<asrwt>0</asrwt>
<pdfrwt beam="1">  1       21 0.14390057E+00 0.19529916E+03</pdfrwt>
<pdfrwt beam="2">  1       21 0.75620728E-02 0.19529916E+03</pdfrwt>
<totfact> 0.44029732E+04</totfact>
</mgrwt>
</event>
<event>
12    1  0.2791583E-001  0.1784770E+03  0.7546771E-02  0.1169996E+00
         21   -1    0    0  502  503  0.00000000000E+00  0.00000000000E+00  0.77025502025E+03  0.77025502025E+03  0.00000000000E+00 0.  1.
         21   -1    0    0  503  504 -0.00000000000E+00 -0.00000000000E+00 -0.78810289641E+02  0.78810289641E+02  0.00000000000E+00 0.  1.
         -6    2    1    2    0  504  0.28085341579E+02 -0.29238028598E+02  0.49019355065E+02  0.18230867042E+03  0.17085053529E+03 0.  0.
        -24    2    3    3    0    0  0.83847188129E+02 -0.38741378302E+02  0.38975820583E+02  0.12466615337E+03  0.74103237830E+02 0.  0.
          6    2    1    2  502    0 -0.28085341579E+02  0.29238028598E+02  0.64242537555E+03  0.66675663948E+03  0.17381140473E+03 0.  0.
         24    2    5    5    0    0 -0.58826007399E+02 -0.33028582752E+02  0.43391189709E+03  0.44693380144E+03  0.83179937547E+02 0.  0.
          4    1    6    6  501    0 -0.60619552742E+01 -0.23956437697E+02  0.32123756567E+03  0.32218664126E+03  0.00000000000E+00 0. -1.
         -3    1    6    6    0  501 -0.52764052125E+02 -0.90721450546E+01  0.11267433142E+03  0.12474716018E+03  0.00000000000E+00 0.  1.
          5    1    5    5  502    0  0.30740665819E+02  0.62266611350E+02  0.20851347846E+03  0.21982283804E+03  0.47000000000E+01 0. -1.
         11    1    4    4    0    0 -0.11544492464E+01  0.14141061957E+02  0.17055247062E+02  0.22185216670E+02  0.00000000000E+00 0. -1.
        -12    1    4    4    0    0  0.85001637375E+02 -0.52882440258E+02  0.21920573521E+02  0.10248093670E+03  0.00000000000E+00 0.  1.
         -5    1    3    3    0  504 -0.55761846550E+02  0.95033497033E+01  0.10043534482E+02  0.57642517043E+02  0.47000000000E+01 0.  1.
<mgrwt>
<rscale>  2 0.17775209E+03</rscale>
<asrwt>0</asrwt>
<pdfrwt beam="1">  1       21 0.11850077E+00 0.17847704E+03</pdfrwt>
<pdfrwt beam="2">  1       21 0.12124660E-01 0.17847704E+03</pdfrwt>
<totfact> 0.31642690E+04</totfact>
</mgrwt>
</event>
<event>
12    1  0.2791583E-001  0.3999778E+03  0.7546771E-02  0.1043797E+00
         21   -1    0    0  502  503  0.00000000000E+00  0.00000000000E+00  0.82787579851E+03  0.82787579851E+03  0.00000000000E+00 0. -1.
         21   -1    0    0  503  504 -0.00000000000E+00 -0.00000000000E+00 -0.19445705270E+03  0.19445705270E+03  0.00000000000E+00 0.  1.
         -6    2    1    2    0  504  0.17614731236E+03  0.31512047032E+03  0.27542588392E+03  0.48554506480E+03  0.17194710219E+03 0.  0.
        -24    2    3    3    0    0  0.11683304119E+03  0.28456194422E+03  0.27219422873E+03  0.41857835757E+03  0.80577190699E+02 0.  0.
          6    2    1    2  502    0 -0.17614731236E+03 -0.31512047032E+03  0.35799286189E+03  0.53678778642E+03  0.17220177707E+03 0.  0.
         24    2    5    5    0    0 -0.19419850202E+03 -0.23446960656E+03  0.25879204736E+03  0.40758523662E+03  0.80394942280E+02 0.  0.
          2    1    6    6  501    0 -0.47872315353E+02 -0.35300808245E+02  0.17062734665E+02  0.61879257867E+02  0.00000000000E+00 0. -1.
         -1    1    6    6    0  501 -0.14632618667E+03 -0.19916879832E+03  0.24172931270E+03  0.34570597875E+03  0.00000000000E+00 0.  1.
          5    1    5    5  502    0  0.18051189662E+02 -0.80650863758E+02  0.99200814528E+02  0.12920254981E+03  0.47000000000E+01 0. -1.
         11    1    4    4    0    0 -0.11281728928E+02  0.10300271721E+02  0.12576479831E+02  0.19787391189E+02  0.00000000000E+00 0. -1.
        -12    1    4    4    0    0  0.12811477012E+03  0.27426167250E+03  0.25961774890E+03  0.39879096638E+03  0.00000000000E+00 0.  1.
         -5    1    3    3    0  504  0.59314271167E+02  0.30558526101E+02  0.32316551912E+01  0.66966707227E+02  0.47000000000E+01 0.  1.
<mgrwt>
<rscale>  2 0.39995040E+03</rscale>
<asrwt>0</asrwt>
<pdfrwt beam="1">  1       21 0.12736551E+00 0.39997780E+03</pdfrwt>
<pdfrwt beam="2">  1       21 0.29916470E-01 0.39997780E+03</pdfrwt>
<totfact> 0.43331509E+03</totfact>
</mgrwt>
</event>
<event>
12    1  0.2791583E-001  0.1759081E+03  0.7546771E-02  0.1171919E+00
         21   -1    0    0  502  503  0.00000000000E+00  0.00000000000E+00  0.86480757323E+03  0.86480757323E+03  0.00000000000E+00 0. -1.
         21   -1    0    0  503  504 -0.00000000000E+00 -0.00000000000E+00 -0.35982293181E+02  0.35982293181E+02  0.00000000000E+00 0. -1.
         -6    2    1    2    0  504 -0.20986486766E+01 -0.36230163761E+02  0.45364832529E+03  0.48642116844E+03  0.17173153751E+03 0.  0.
        -24    2    3    3    0    0 -0.27635935380E+02 -0.85703702398E+02  0.33293679525E+03  0.35340557716E+03  0.77069597184E+02 0.  0.
          6    2    1    2  502    0  0.20986486766E+01  0.36230163761E+02  0.37517695476E+03  0.41436869798E+03  0.17212391288E+03 0.  0.
         24    2    5    5    0    0  0.85886808579E+01 -0.45586186211E+02  0.17953036407E+03  0.20215250140E+03  0.80514696710E+02 0.  0.
          4    1    6    6  501    0 -0.31983137939E+02 -0.13241734257E+02  0.37961105001E+02  0.51374216602E+02  0.00000000000E+00 0. -1.
         -3    1    6    6    0  501  0.40571818797E+02 -0.32344451954E+02  0.14156925907E+03  0.15077828480E+03  0.00000000000E+00 0.  1.
          5    1    5    5  502    0 -0.64900321813E+01  0.81816349972E+02  0.19564659069E+03  0.21221619657E+03  0.47000000000E+01 0. -1.
         13    1    4    4    0    0 -0.82192801474E+00 -0.87941777962E+02  0.21211809685E+03  0.22962691238E+03  0.00000000000E+00 0. -1.
        -14    1    4    4    0    0 -0.26814007365E+02  0.22380755639E+01  0.12081869840E+03  0.12377866478E+03  0.00000000000E+00 0.  1.
         -5    1    3    3    0  504  0.25537286703E+02  0.49473538637E+02  0.12071153004E+03  0.13301559127E+03  0.47000000000E+01 0.  1.
<mgrwt>
<rscale>  2 0.17581207E+03</rscale>
<asrwt>0</asrwt>
<pdfrwt beam="1">  1       21 0.13304730E+00 0.17590813E+03</pdfrwt>
<pdfrwt beam="2">  1       21 0.55357381E-02 0.17590813E+03</pdfrwt>
<totfact> 0.92949261E+04</totfact>
</mgrwt>
</event>
<event>
12    1  0.2791583E-001  0.1938768E+03  0.7546771E-02  0.1155495E+00
         21   -1    0    0  502  503  0.00000000000E+00  0.00000000000E+00  0.99165667735E+02  0.99165667735E+02  0.00000000000E+00 0. -1.
         21   -1    0    0  503  504 -0.00000000000E+00 -0.00000000000E+00 -0.38443134096E+03  0.38443134096E+03  0.00000000000E+00 0. -1.
         -6    2    1    2    0  504  0.83149389645E+02  0.96082614410E+01 -0.18017232487E+03  0.26306850265E+03  0.17244370313E+03 0.  0.
        -24    2    3    3    0    0  0.31022669383E+02 -0.12574539838E+02 -0.16487475262E+02  0.89793889301E+02  0.81673622716E+02 0.  0.
          6    2    1    2  502    0 -0.83149389645E+02 -0.96082614410E+01 -0.10509334835E+03  0.22052850605E+03  0.17487730106E+03 0.  0.
         24    2    5    5    0    0  0.23233936086E+02 -0.58957310007E+01 -0.64598987281E+02  0.10654132188E+03  0.81261606437E+02 0.  0.
          2    1    6    6  501    0  0.27038679728E+02  0.34208478871E+02 -0.26098136946E+02  0.50817545987E+02  0.00000000000E+00 0. -1.
         -1    1    6    6    0  501 -0.38047436418E+01 -0.40104209871E+02 -0.38500850335E+02  0.55723775896E+02  0.00000000000E+00 0.  1.
          5    1    5    5  502    0 -0.10638332573E+03 -0.37125304404E+01 -0.40494361072E+02  0.11398718417E+03  0.47000000000E+01 0. -1.
         11    1    4    4    0    0  0.58088797821E+02 -0.28972006530E+01 -0.18356488027E+02  0.60989038824E+02  0.00000000000E+00 0. -1.
        -12    1    4    4    0    0 -0.27066128438E+02 -0.96773391849E+01  0.18690127644E+01  0.28804850477E+02  0.00000000000E+00 0.  1.
         -5    1    3    3    0  504  0.52126720261E+02  0.22182801279E+02 -0.16368484961E+03  0.17327461335E+03  0.47000000000E+01 0.  1.
<mgrwt>
<rscale>  2 0.19332639E+03</rscale>
<asrwt>0</asrwt>
<pdfrwt beam="1">  1       21 0.15256257E-01 0.19387679E+03</pdfrwt>
<pdfrwt beam="2">  1       21 0.59143283E-01 0.19387679E+03</pdfrwt>
<totfact> 0.10160233E+05</totfact>
</mgrwt>
</event>
<event>
12    1  0.2791583E-001  0.1866910E+03  0.7546771E-02  0.1161515E+00
         21   -1    0    0  502  503  0.00000000000E+00  0.00000000000E+00  0.90246599759E+02  0.90246599759E+02  0.00000000000E+00 0.  1.
         21   -1    0    0  503  504 -0.00000000000E+00 -0.00000000000E+00 -0.39641194964E+03  0.39641194964E+03  0.00000000000E+00 0.  1.
         -6    2    1    2    0  504  0.62225776585E+02  0.35160608526E+02 -0.11337318822E+03  0.21828876482E+03  0.17230260988E+03 0.  0.
        -24    2    3    3    0    0  0.84477547684E+02  0.31958849149E+01 -0.22079418731E+02  0.11892314088E+03  0.80675541282E+02 0.  0.
          6    2    1    2  502    0 -0.62225776585E+02 -0.35160608526E+02 -0.19279216166E+03  0.26836978459E+03  0.17246799128E+03 0.  0.
         24    2    5    5    0    0 -0.71180868002E+02  0.34914143639E+02 -0.96674879336E+02  0.14899103223E+03  0.81034449428E+02 0.  0.
          4    1    6    6  501    0 -0.53134610736E+02  0.55551165372E+02 -0.94024304792E+02  0.12144870820E+03  0.00000000000E+00 0. -1.
         -3    1    6    6    0  501 -0.18046257267E+02 -0.20637021733E+02 -0.26505745442E+01  0.27542324026E+02  0.00000000000E+00 0.  1.
          5    1    5    5  502    0  0.89550914176E+01 -0.70074752165E+02 -0.96117282323E+02  0.11937875236E+03  0.47000000000E+01 0. -1.
         11    1    4    4    0    0  0.12213355876E+02 -0.27588453917E+02 -0.26631519376E+02  0.40243343245E+02  0.00000000000E+00 0. -1.
        -12    1    4    4    0    0  0.72264191807E+02  0.30784338832E+02  0.45521006453E+01  0.78679797630E+02  0.00000000000E+00 0.  1.
         -5    1    3    3    0  504 -0.22251771099E+02  0.31964723611E+02 -0.91293769494E+02  0.99365623940E+02  0.47000000000E+01 0.  1.
<mgrwt>
<rscale>  2 0.18665278E+03</rscale>
<asrwt>0</asrwt>
<pdfrwt beam="1">  1       21 0.13884092E-01 0.18669098E+03</pdfrwt>
<pdfrwt beam="2">  1       21 0.60986454E-01 0.18669098E+03</pdfrwt>
<totfact> 0.11317951E+05</totfact>
</mgrwt>
</event>
<event>
12    1  0.2791583E-001  0.1864059E+03  0.7546771E-02  0.1161747E+00
         21   -1    0    0  502  503  0.00000000000E+00  0.00000000000E+00  0.11173375301E+03  0.11173375301E+03  0.00000000000E+00 0.  1.
         21   -1    0    0  503  504 -0.00000000000E+00 -0.00000000000E+00 -0.44241183818E+03  0.44241183818E+03  0.00000000000E+00 0.  1.
         -6    2    1    2    0  504 -0.52571696908E+02 -0.46329051246E+02 -0.31637634997E+03  0.36720721711E+03  0.17273384490E+03 0.  0.
        -24    2    3    3    0    0  0.20384787694E+02 -0.11418003090E+02 -0.82128263886E+02  0.11934498570E+03  0.83380234575E+02 0.  0.
          6    2    1    2  502    0  0.52571696908E+02  0.46329051246E+02 -0.14301735204E+02  0.18693837408E+03  0.17271725961E+03 0.  0.
         24    2    5    5    0    0  0.57640026239E+02  0.95798270227E+01 -0.72817194265E+02  0.11749528664E+03  0.71334794398E+02 0.  0.
          4    1    6    6  501    0  0.42481621634E+00 -0.18840547351E+02 -0.43093472101E+02  0.47033966780E+02  0.00000000000E+00 0. -1.
         -3    1    6    6    0  501  0.57215210023E+02  0.28420374373E+02 -0.29723722164E+02  0.70461319862E+02  0.00000000000E+00 0.  1.
          5    1    5    5  502    0 -0.50683293306E+01  0.36749224223E+02  0.58515459062E+02  0.69443087434E+02  0.47000000000E+01 0. -1.
         11    1    4    4    0    0  0.49889388066E+02 -0.20501288575E+02 -0.63390359136E+02  0.83232154281E+02  0.00000000000E+00 0. -1.
        -12    1    4    4    0    0 -0.29504600372E+02  0.90832854847E+01 -0.18737904750E+02  0.36112831414E+02  0.00000000000E+00 0.  1.
         -5    1    3    3    0  504 -0.72956484602E+02 -0.34911048156E+02 -0.23424808608E+03  0.24786223142E+03  0.47000000000E+01 0.  1.
<mgrwt>
<rscale>  2 0.18640202E+03</rscale>
<asrwt>0</asrwt>
<pdfrwt beam="1">  1       21 0.17189808E-01 0.18640586E+03</pdfrwt>
<pdfrwt beam="2">  1       21 0.68063359E-01 0.18640586E+03</pdfrwt>
<totfact> 0.60410361E+04</totfact>
</mgrwt>
</event>
<event>
12    1  0.2791583E-001  0.1965995E+03  0.7546771E-02  0.1152832E+00
         21   -1    0    0  502  503  0.00000000000E+00  0.00000000000E+00  0.66952252888E+02  0.66952252888E+02  0.00000000000E+00 0.  1.
         21   -1    0    0  503  504 -0.00000000000E+00 -0.00000000000E+00 -0.69351539513E+03  0.69351539513E+03  0.00000000000E+00 0.  1.
         -6    2    1    2    0  504  0.45451333203E+01 -0.91218486787E+02 -0.47008078534E+03  0.50919472531E+03  0.17309492475E+03 0.  0.
        -24    2    3    3    0    0 -0.35494906841E+02 -0.97165857387E+02 -0.44359930340E+03  0.46059498335E+03  0.68310353949E+02 0.  0.
          6    2    1    2  502    0 -0.45451333203E+01  0.91218486787E+02 -0.15648235690E+03  0.25127292270E+03  0.17409733799E+03 0.  0.
         24    2    5    5    0    0 -0.24422096266E+02  0.11817905058E+03 -0.16278493419E+03  0.21686684568E+03  0.77262974151E+02 0.  0.
          2    1    6    6  501    0  0.87338277597E+01  0.10337077862E+03 -0.98597265468E+02  0.14311959466E+03  0.00000000000E+00 0. -1.
         -1    1    6    6    0  501 -0.33155924026E+02  0.14808271961E+02 -0.64187668722E+02  0.73747251016E+02  0.00000000000E+00 0.  1.
          5    1    5    5  502    0  0.19876962946E+02 -0.26960563790E+02  0.63025772855E+01  0.34406077025E+02  0.47000000000E+01 0. -1.
         13    1    4    4    0    0 -0.39934067726E+02 -0.34410633455E+02 -0.12202523377E+03  0.13292471229E+03  0.00000000000E+00 0. -1.
        -14    1    4    4    0    0  0.44391608848E+01 -0.62755223932E+02 -0.32157406963E+03  0.32767027106E+03  0.00000000000E+00 0.  1.
         -5    1    3    3    0  504  0.40040040161E+02  0.59473705999E+01 -0.26481481936E+02  0.48599741961E+02  0.47000000000E+01 0.  1.
<mgrwt>
<rscale>  2 0.19637732E+03</rscale>
<asrwt>0</asrwt>
<pdfrwt beam="1">  1       21 0.10300347E-01 0.19659948E+03</pdfrwt>
<pdfrwt beam="2">  1       21 0.10669468E+00 0.19659948E+03</pdfrwt>
<totfact> 0.54030122E+04</totfact>
</mgrwt>
</event>
<event>
12    1  0.2791583E-001  0.1957874E+03  0.7546771E-02  0.1153608E+00
         21   -1    0    0  502  503  0.00000000000E+00  0.00000000000E+00  0.48295709381E+03  0.48295709381E+03  0.00000000000E+00 0. -1.
         21   -1    0    0  503  504 -0.00000000000E+00 -0.00000000000E+00 -0.14942946030E+03  0.14942946030E+03  0.00000000000E+00 0. -1.
         -6    2    1    2    0  504 -0.79658501658E+02  0.41340080546E+02 -0.50226597410E+02  0.20212723548E+03  0.17400640531E+03 0.  0.
        -24    2    3    3    0    0 -0.44359118778E+02  0.24363704872E+02  0.41157005155E+02  0.10259183183E+03  0.79182468708E+02 0.  0.
          6    2    1    2  502    0  0.79658501658E+02 -0.41340080546E+02  0.38375423092E+03  0.43025931862E+03  0.17263050822E+03 0.  0.
         24    2    5    5    0    0  0.11703849845E+03 -0.84603129732E+01  0.25273487880E+03  0.29002200581E+03  0.80425480263E+02 0.  0.
          4    1    6    6  501    0  0.87283609656E+02  0.21994694042E+02  0.11609556472E+03  0.14690260456E+03  0.00000000000E+00 0. -1.
         -3    1    6    6    0  501  0.29754888796E+02 -0.30455007015E+02  0.13663931409E+03  0.14311940125E+03  0.00000000000E+00 0.  1.
          5    1    5    5  502    0 -0.37379996794E+02 -0.32879767573E+02  0.13101935212E+03  0.14023731281E+03  0.47000000000E+01 0. -1.
         11    1    4    4    0    0 -0.34884015033E+02 -0.14112158304E+02 -0.89794773405E+01  0.38686929706E+02  0.00000000000E+00 0. -1.
        -12    1    4    4    0    0 -0.94751037454E+01  0.38475863177E+02  0.50136482496E+02  0.63904902122E+02  0.00000000000E+00 0.  1.
         -5    1    3    3    0  504 -0.35299382880E+02  0.16976375673E+02 -0.91383602565E+02  0.99535403654E+02  0.47000000000E+01 0.  1.
<mgrwt>
<rscale>  2 0.19548124E+03</rscale>
<asrwt>0</asrwt>
<pdfrwt beam="1">  1       21 0.74301091E-01 0.19578741E+03</pdfrwt>
<pdfrwt beam="2">  1       21 0.22989148E-01 0.19578741E+03</pdfrwt>
<totfact> 0.28789945E+04</totfact>
</mgrwt>
</event>
<event>
12    1  0.2791583E-001  0.1846975E+03  0.7546771E-02  0.1164645E+00
         21   -1    0    0  502  503  0.00000000000E+00  0.00000000000E+00  0.27040445999E+03  0.27040445999E+03  0.00000000000E+00 0.  1.
         21   -1    0    0  503  504 -0.00000000000E+00 -0.00000000000E+00 -0.14363572831E+03  0.14363572831E+03  0.00000000000E+00 0. -1.
         -6    2    1    2    0  504  0.33625188946E+02  0.52274318802E+02  0.14377113083E+03  0.23405836781E+03  0.17392505209E+03 0.  0.
        -24    2    3    3    0    0 -0.37853537113E+02  0.61258478055E+02  0.48500054486E+02  0.11452347172E+03  0.74685198554E+02 0.  0.
          6    2    1    2  502    0 -0.33625188946E+02 -0.52274318802E+02 -0.17002399150E+02  0.17998182048E+03  0.16805093392E+03 0.  0.
         24    2    5    5    0    0 -0.23472824182E+02  0.20930780046E+02  0.31649147900E+02  0.91375274236E+02  0.79741464437E+02 0.  0.
          2    1    6    6  501    0 -0.51716820280E+02  0.18905936919E+02  0.30697404217E+02  0.63042799560E+02  0.00000000000E+00 0. -1.
         -1    1    6    6    0  501  0.28243996098E+02  0.20248431265E+01  0.95174368365E+00  0.28332474677E+02  0.00000000000E+00 0.  1.
          5    1    5    5  502    0 -0.10152364764E+02 -0.73205098848E+02 -0.48651547051E+02  0.88606546248E+02  0.47000000000E+01 0. -1.
         11    1    4    4    0    0  0.16452739095E+02  0.22175506351E+02 -0.59658810524E+01  0.28249556499E+02  0.00000000000E+00 0. -1.
        -12    1    4    4    0    0 -0.54306276207E+02  0.39082971704E+02  0.54465935539E+02  0.86273915217E+02  0.00000000000E+00 0.  1.
         -5    1    3    3    0  504  0.71478726059E+02 -0.89841592530E+01  0.95271076347E+02  0.11953489610E+03  0.47000000000E+01 0.  1.
<mgrwt>
<rscale>  2 0.18330164E+03</rscale>
<asrwt>0</asrwt>
<pdfrwt beam="1">  1       21 0.41600686E-01 0.18469754E+03</pdfrwt>
<pdfrwt beam="2">  1       21 0.22097804E-01 0.18469754E+03</pdfrwt>
<totfact> 0.10680382E+05</totfact>
</mgrwt>
</event>
<event>
12    1  0.2791583E-001  0.2156215E+03  0.7546771E-02  0.1137622E+00
         21   -1    0    0  502  503  0.00000000000E+00  0.00000000000E+00  0.13158919184E+03  0.13158919184E+03  0.00000000000E+00 0.  1.
         21   -1    0    0  503  504 -0.00000000000E+00 -0.00000000000E+00 -0.47669754318E+03  0.47669754318E+03  0.00000000000E+00 0.  1.
         -6    2    1    2    0  504 -0.45214433335E+02  0.11976375252E+03 -0.14877856548E+02  0.21389502655E+03  0.17071036983E+03 0.  0.
        -24    2    3    3    0    0  0.63908990049E+01  0.30634036875E+01 -0.25322648259E+02  0.85780759513E+02  0.81650928687E+02 0.  0.
          6    2    1    2  502    0  0.45214433335E+02 -0.11976375252E+03 -0.33023049479E+03  0.39439170847E+03  0.17350774801E+03 0.  0.
         24    2    5    5    0    0  0.65864100024E+02 -0.49619798642E+02 -0.99468078041E+02  0.15227610388E+03  0.80584794937E+02 0.  0.
          2    1    6    6  501    0  0.20809341303E+02  0.15773682208E+02 -0.55899613022E+02  0.61697686115E+02  0.00000000000E+00 0. -1.
         -1    1    6    6    0  501  0.45054758721E+02 -0.65393480851E+02 -0.43568465019E+02  0.90578417767E+02  0.00000000000E+00 0.  1.
          5    1    5    5  502    0 -0.20649666689E+02 -0.70143953882E+02 -0.23076241675E+03  0.24211560459E+03  0.47000000000E+01 0. -1.
         13    1    4    4    0    0 -0.18356802519E+02 -0.15428143416E+02  0.19799032307E+02  0.31096647541E+02  0.00000000000E+00 0. -1.
        -14    1    4    4    0    0  0.24747701524E+02  0.18491547104E+02 -0.45121680566E+02  0.54684111972E+02  0.00000000000E+00 0.  1.
         -5    1    3    3    0  504 -0.51605332340E+02  0.11670034884E+03  0.10444791711E+02  0.12811426704E+03  0.47000000000E+01 0.  1.
<mgrwt>
<rscale>  2 0.21505818E+03</rscale>
<asrwt>0</asrwt>
<pdfrwt beam="1">  1       21 0.20244491E-01 0.21562152E+03</pdfrwt>
<pdfrwt beam="2">  1       21 0.73338084E-01 0.21562152E+03</pdfrwt>
<totfact> 0.37264936E+04</totfact>
</mgrwt>
</event>
<event>
12    1  0.2791583E-001  0.3302698E+03  0.7546771E-02  0.1071059E+00
         21   -1    0    0  502  503  0.00000000000E+00  0.00000000000E+00  0.73968714675E+03  0.73968714675E+03  0.00000000000E+00 0.  1.
         21   -1    0    0  503  504 -0.00000000000E+00 -0.00000000000E+00 -0.18289441686E+03  0.18289441686E+03  0.00000000000E+00 0. -1.
         -6    2    1    2    0  504 -0.19355972348E+03  0.20317131412E+03  0.48177557676E+03  0.58389925059E+03  0.17345512114E+03 0.  0.
        -24    2    3    3    0    0 -0.18993392200E+03  0.22404789305E+03  0.42355239590E+03  0.52176225056E+03  0.81036170510E+02 0.  0.
          6    2    1    2  502    0  0.19355972348E+03 -0.20317131412E+03  0.75017153137E+02  0.33868231302E+03  0.17416712220E+03 0.  0.
         24    2    5    5    0    0  0.46945958014E+02 -0.13130872256E+03  0.67111862354E+02  0.17514512486E+03  0.82011640028E+02 0.  0.
          2    1    6    6  501    0  0.42504520921E+01 -0.14748240907E+02  0.46936447978E+02  0.49382254926E+02  0.00000000000E+00 0. -1.
         -1    1    6    6    0  501  0.42695505922E+02 -0.11656048165E+03  0.20175414376E+02  0.12576286994E+03  0.00000000000E+00 0.  1.
          5    1    5    5  502    0  0.14661376547E+03 -0.71862591559E+02  0.79052907828E+01  0.16353718816E+03  0.47000000000E+01 0. -1.
         13    1    4    4    0    0 -0.56979835779E+02  0.34568766905E+02  0.54344096417E+02  0.85994082041E+02  0.00000000000E+00 0. -1.
        -14    1    4    4    0    0 -0.13295408622E+03  0.18947912614E+03  0.36920829948E+03  0.43576816852E+03  0.00000000000E+00 0.  1.
         -5    1    3    3    0  504 -0.36258014808E+01 -0.20876578928E+02  0.58223180856E+02  0.62137000033E+02  0.47000000000E+01 0.  1.
<mgrwt>
<rscale>  2 0.33017602E+03</rscale>
<asrwt>0</asrwt>
<pdfrwt beam="1">  1       21 0.11379802E+00 0.33026979E+03</pdfrwt>
<pdfrwt beam="2">  1       21 0.28137603E-01 0.33026979E+03</pdfrwt>
<totfact> 0.66929330E+03</totfact>
</mgrwt>
</event>
<event>
12    1  0.2791583E-001  0.1735133E+03  0.7546771E-02  0.1174484E+00
         21   -1    0    0  502  503  0.00000000000E+00  0.00000000000E+00  0.41341446611E+03  0.41341446611E+03  0.00000000000E+00 0.  1.
         21   -1    0    0  503  504 -0.00000000000E+00 -0.00000000000E+00 -0.18115105728E+03  0.18115105728E+03  0.00000000000E+00 0.  1.
         -6    2    1    2    0  504  0.93427140410E+00  0.16103990072E+02 -0.11432541939E+03  0.20696948313E+03  0.17177268138E+03 0.  0.
        -24    2    3    3    0    0  0.59017785367E+02 -0.17404777170E+02 -0.84181200008E+02  0.13329929894E+03  0.83043382663E+02 0.  0.
          6    2    1    2  502    0 -0.93427140410E+00 -0.16103990072E+02  0.34658882822E+03  0.38759604026E+03  0.17276186854E+03 0.  0.
         24    2    5    5    0    0 -0.14278366240E+02 -0.86989952411E+01  0.35842109841E+03  0.36772164886E+03  0.80461065068E+02 0.  0.
          4    1    6    6  501    0  0.13884236194E+02  0.30606441584E+02  0.16030861742E+03  0.16379370898E+03  0.00000000000E+00 0. -1.
         -3    1    6    6    0  501 -0.28162602434E+02 -0.39305436825E+02  0.19811248099E+03  0.20392793988E+03  0.00000000000E+00 0.  1.
          5    1    5    5  502    0  0.13344094836E+02 -0.74049948306E+01 -0.11832270198E+02  0.19874391399E+02  0.47000000000E+01 0. -1.
         11    1    4    4    0    0  0.54440841673E+02 -0.44757906260E+02 -0.39725805250E+02  0.80902503160E+02  0.00000000000E+00 0. -1.
        -12    1    4    4    0    0  0.45769436946E+01  0.27353129090E+02 -0.44455394757E+02  0.52396795776E+02  0.00000000000E+00 0.  1.
         -5    1    3    3    0  504 -0.58083513963E+02  0.33508767241E+02 -0.30144219383E+02  0.73670184190E+02  0.47000000000E+01 0.  1.
<mgrwt>
<rscale>  2 0.17326658E+03</rscale>
<asrwt>0</asrwt>
<pdfrwt beam="1">  1       21 0.63602225E-01 0.17351333E+03</pdfrwt>
<pdfrwt beam="2">  1       21 0.27869394E-01 0.17351333E+03</pdfrwt>
<totfact> 0.28393185E+04</totfact>
</mgrwt>
</event>
<event>
12    1  0.2791583E-001  0.2345412E+03  0.7546771E-02  0.1123728E+00
         21   -1    0    0  502  503  0.00000000000E+00  0.00000000000E+00  0.26861814793E+03  0.26861814793E+03  0.00000000000E+00 0. -1.
         21   -1    0    0  503  504 -0.00000000000E+00 -0.00000000000E+00 -0.20497478885E+03  0.20497478885E+03  0.00000000000E+00 0. -1.
         -6    2    1    2    0  504 -0.35031998834E+02 -0.15306521856E+03  0.12171651715E+02  0.23485677652E+03  0.17422214066E+03 0.  0.
        -24    2    3    3    0    0 -0.89334242179E+01 -0.12982904103E+03  0.69229142306E+02  0.16778440683E+03  0.80147034055E+02 0.  0.
          6    2    1    2  502    0  0.35031998834E+02  0.15306521856E+03  0.51471707361E+02  0.23873616027E+03  0.17230616787E+03 0.  0.
         24    2    5    5    0    0 -0.20339845094E+02  0.25826801763E+02  0.51412388995E+02  0.99891825389E+02  0.79084828189E+02 0.  0.
          4    1    6    6  501    0 -0.15335082998E+02  0.90658852906E+01 -0.19758052227E+02  0.26603301947E+02  0.00000000000E+00 0. -1.
         -3    1    6    6    0  501 -0.50047620961E+01  0.16760916473E+02  0.71170441222E+02  0.73288523442E+02  0.00000000000E+00 0.  1.
          5    1    5    5  502    0  0.55371843928E+02  0.12723841680E+03  0.59318366096E-01  0.13884433488E+03  0.47000000000E+01 0. -1.
         13    1    4    4    0    0 -0.18039503746E+02 -0.99087801428E+01 -0.10880381487E+02  0.23280685570E+02  0.00000000000E+00 0. -1.
        -14    1    4    4    0    0  0.91060795279E+01 -0.11992026088E+03  0.80109523793E+02  0.14450372126E+03  0.00000000000E+00 0.  1.
         -5    1    3    3    0  504 -0.26098574617E+02 -0.23236177535E+02 -0.57057490591E+02  0.67072369691E+02  0.47000000000E+01 0.  1.
<mgrwt>
<rscale>  2 0.23418543E+03</rscale>
<asrwt>0</asrwt>
<pdfrwt beam="1">  1       21 0.41325869E-01 0.23454116E+03</pdfrwt>
<pdfrwt beam="2">  1       21 0.31534583E-01 0.23454116E+03</pdfrwt>
<totfact> 0.53483245E+04</totfact>
</mgrwt>
</event>
<event>
12    1  0.2791583E-001  0.1884471E+03  0.7546771E-02  0.1160107E+00
         21   -1    0    0  502  503  0.00000000000E+00  0.00000000000E+00  0.83666629599E+02  0.83666629599E+02  0.00000000000E+00 0.  1.
         21   -1    0    0  503  504 -0.00000000000E+00 -0.00000000000E+00 -0.42710045948E+03  0.42710045948E+03  0.00000000000E+00 0.  1.
         -6    2    1    2    0  504  0.24496156318E+02 -0.65346647141E+02 -0.14457785751E+03  0.23751854266E+03  0.17504872253E+03 0.  0.
        -24    2    3    3    0    0  0.75228660006E+02 -0.15567700724E+02 -0.11586867987E+03  0.16071986222E+03  0.80645015617E+02 0.  0.
          6    2    1    2  502    0 -0.24496156318E+02  0.65346647141E+02 -0.19885597237E+03  0.27324854642E+03  0.17392764129E+03 0.  0.
         24    2    5    5    0    0  0.42675519901E+02  0.76360523856E+02 -0.13718515019E+03  0.18127724723E+03  0.79934631593E+02 0.  0.
          2    1    6    6  501    0  0.33966962928E+02  0.82950287140E+02 -0.71414238458E+02  0.11460583825E+03  0.00000000000E+00 0. -1.
         -1    1    6    6    0  501  0.87085569731E+01 -0.65897632837E+01 -0.65770911737E+02  0.66671408980E+02  0.00000000000E+00 0.  1.
          5    1    5    5  502    0 -0.67171676219E+02 -0.11013876715E+02 -0.61670822175E+02  0.91971299186E+02  0.47000000000E+01 0. -1.
         13    1    4    4    0    0  0.26341613059E+02 -0.14316907337E+02 -0.10687007182E+03  0.11099579571E+03  0.00000000000E+00 0. -1.
        -14    1    4    4    0    0  0.48887046948E+02 -0.12507933876E+01 -0.89986080521E+01  0.49724066509E+02  0.00000000000E+00 0.  1.
         -5    1    3    3    0  504 -0.50732503688E+02 -0.49778946417E+02 -0.28709177638E+02  0.76798680441E+02  0.47000000000E+01 0.  1.
<mgrwt>
<rscale>  2 0.18818631E+03</rscale>
<asrwt>0</asrwt>
<pdfrwt beam="1">  1       21 0.12871789E-01 0.18844708E+03</pdfrwt>
<pdfrwt beam="2">  1       21 0.65707762E-01 0.18844708E+03</pdfrwt>
<totfact> 0.11032353E+05</totfact>
</mgrwt>
</event>
<event>
12    1  0.2791583E-001  0.2432560E+03  0.7546771E-02  0.1117738E+00
         21   -1    0    0  502  503  0.00000000000E+00  0.00000000000E+00  0.55993163677E+03  0.55993163677E+03  0.00000000000E+00 0. -1.
         21   -1    0    0  503  504 -0.00000000000E+00 -0.00000000000E+00 -0.20431355787E+03  0.20431355787E+03  0.00000000000E+00 0.  1.
         -6    2    1    2    0  504 -0.10299604584E+03 -0.13656940121E+03 -0.87923391196E+02  0.25865804267E+03  0.17295685448E+03 0.  0.
        -24    2    3    3    0    0 -0.22068888663E+02 -0.27745245234E+01 -0.15902253626E+01  0.79980178012E+02  0.76808633792E+02 0.  0.
          6    2    1    2  502    0  0.10299604584E+03  0.13656940121E+03  0.44354147009E+03  0.50558715197E+03  0.17213351137E+03 0.  0.
         24    2    5    5    0    0  0.34627468611E+02  0.10344244608E+03  0.14853209610E+03  0.20091638170E+03  0.80038788286E+02 0.  0.
          2    1    6    6  501    0 -0.42022316152E+01 -0.11318613523E+02  0.49462127353E+01  0.13047405223E+02  0.00000000000E+00 0. -1.
         -1    1    6    6    0  501  0.38829700226E+02  0.11476105961E+03  0.14358588336E+03  0.18786897648E+03  0.00000000000E+00 0.  1.
          5    1    5    5  502    0  0.68368577229E+02  0.33126955123E+02  0.29500937400E+03  0.30467077027E+03  0.47000000000E+01 0. -1.
         11    1    4    4    0    0 -0.12288008054E+01 -0.24251432752E+02  0.28568168269E+02  0.37493761884E+02  0.00000000000E+00 0. -1.
        -12    1    4    4    0    0 -0.20840087858E+02  0.21476908229E+02 -0.30158393632E+02  0.42486416128E+02  0.00000000000E+00 0.  1.
         -5    1    3    3    0  504 -0.80927157176E+02 -0.13379487668E+03 -0.86333165833E+02  0.17867786466E+03  0.47000000000E+01 0.  1.
<mgrwt>
<rscale>  2 0.24310965E+03</rscale>
<asrwt>0</asrwt>
<pdfrwt beam="1">  1       21 0.86143328E-01 0.24325596E+03</pdfrwt>
<pdfrwt beam="2">  1       21 0.31432855E-01 0.24325596E+03</pdfrwt>
<totfact> 0.10950053E+04</totfact>
</mgrwt>
</event>
<event>
12    1  0.2791583E-001  0.1941696E+03  0.7546771E-02  0.1154765E+00
         21   -1    0    0  502  503  0.00000000000E+00  0.00000000000E+00  0.15922047725E+04  0.15922047725E+04  0.00000000000E+00 0. -1.
         21   -1    0    0  503  504 -0.00000000000E+00 -0.00000000000E+00 -0.14636356288E+03  0.14636356288E+03  0.00000000000E+00 0. -1.
         -6    2    1    2    0  504 -0.12999905969E+02 -0.87363594096E+02 -0.72950770949E+02  0.20742146932E+03  0.17291748270E+03 0.  0.
        -24    2    3    3    0    0 -0.89745198441E+01 -0.70772467830E+01 -0.94992049998E+02  0.12393488788E+03  0.78776503105E+02 0.  0.
          6    2    1    2  502    0  0.12999905969E+02  0.87363594096E+02  0.15187919806E+04  0.15311468661E+04  0.17285904687E+03 0.  0.
         24    2    5    5    0    0  0.66104399368E+02  0.28527111907E+02  0.66776685843E+03  0.67642605354E+03  0.80349492556E+02 0.  0.
          4    1    6    6  501    0  0.60383628967E+02 -0.69497052221E+01  0.54865427102E+03  0.55201086054E+03  0.00000000000E+00 0. -1.
         -3    1    6    6    0  501  0.57207704011E+01  0.35476817129E+02  0.11911258741E+03  0.12441519300E+03  0.00000000000E+00 0.  1.
          5    1    5    5  502    0 -0.53104493399E+02  0.58836482189E+02  0.85102512214E+03  0.85472081253E+03  0.47000000000E+01 0. -1.
         11    1    4    4    0    0  0.34269885178E+02 -0.69487461694E+01 -0.31178399876E+02  0.46848721672E+02  0.00000000000E+00 0. -1.
        -12    1    4    4    0    0 -0.43244405022E+02 -0.12850061354E+00 -0.63813650122E+02  0.77086166204E+02  0.00000000000E+00 0.  1.
         -5    1    3    3    0  504 -0.40253861249E+01 -0.80286347313E+02  0.22041279049E+02  0.83486581439E+02  0.47000000000E+01 0.  1.
<mgrwt>
<rscale>  2 0.19415663E+03</rscale>
<asrwt>0</asrwt>
<pdfrwt beam="1">  1       21 0.24495457E+00 0.19416964E+03</pdfrwt>
<pdfrwt beam="2">  1       21 0.22517472E-01 0.19416964E+03</pdfrwt>
<totfact> 0.13131689E+03</totfact>
</mgrwt>
</event>
<event>
12    1  0.2791583E-001  0.1768544E+03  0.7546771E-02  0.1172048E+00
         21   -1    0    0  502  503  0.00000000000E+00  0.00000000000E+00  0.64755998391E+02  0.64755998391E+02  0.00000000000E+00 0. -1.
         21   -1    0    0  503  504 -0.00000000000E+00 -0.00000000000E+00 -0.47998773123E+03  0.47998773123E+03  0.00000000000E+00 0. -1.
         -6    2    1    2    0  504 -0.38547288900E+01 -0.27098012470E+02 -0.16644641891E+03  0.23950350291E+03  0.17002457565E+03 0.  0.
        -24    2    3    3    0    0 -0.48557728151E+02  0.18881565468E+02 -0.53676795263E+02  0.10968995298E+03  0.80226684816E+02 0.  0.
          6    2    1    2  502    0  0.38547288900E+01  0.27098012470E+02 -0.24878531392E+03  0.30524022670E+03  0.17472350259E+03 0.  0.
         24    2    5    5    0    0 -0.25629112649E+02  0.81633510254E+02 -0.17600476082E+03  0.20951919275E+03  0.74831376362E+02 0.  0.
          4    1    6    6  501    0  0.55065889911E+01  0.23301694322E+01 -0.83673003193E+02  0.83886373597E+02  0.00000000000E+00 0. -1.
         -3    1    6    6    0  501 -0.31135701640E+02  0.79303340822E+02 -0.92331757625E+02  0.12563281915E+03  0.00000000000E+00 0.  1.
          5    1    5    5  502    0  0.29483841539E+02 -0.54535497784E+02 -0.72780553106E+02  0.95721033952E+02  0.47000000000E+01 0. -1.
         13    1    4    4    0    0  0.17600961374E+02  0.19751470074E+02 -0.28528442687E+02  0.38907408723E+02  0.00000000000E+00 0. -1.
        -14    1    4    4    0    0 -0.66158689525E+02 -0.86990460606E+00 -0.25148352576E+02  0.70782544254E+02  0.00000000000E+00 0.  1.
         -5    1    3    3    0  504  0.44702999261E+02 -0.45979577938E+02 -0.11276962365E+03  0.12981354994E+03  0.47000000000E+01 0.  1.
<mgrwt>
<rscale>  2 0.17568257E+03</rscale>
<asrwt>0</asrwt>
<pdfrwt beam="1">  1       21 0.99624615E-02 0.17685436E+03</pdfrwt>
<pdfrwt beam="2">  1       21 0.73844265E-01 0.17685436E+03</pdfrwt>
<totfact> 0.13520267E+05</totfact>
</mgrwt>
</event>
<event>
12    1  0.2791583E-001  0.1929726E+03  0.7546771E-02  0.1157980E+00
         21   -1    0    0  502  503  0.00000000000E+00  0.00000000000E+00  0.66852568336E+02  0.66852568336E+02  0.00000000000E+00 0.  1.
         21   -1    0    0  503  504 -0.00000000000E+00 -0.00000000000E+00 -0.67916037127E+03  0.67916037127E+03  0.00000000000E+00 0.  1.
         -6    2    1    2    0  504 -0.13915831638E+02  0.61054798294E+02 -0.48713672877E+03  0.52396623458E+03  0.18252967897E+03 0.  0.
        -24    2    3    3    0    0  0.12830177775E+01  0.23826752543E+02 -0.82522721918E+02  0.11733185710E+03  0.79921241144E+02 0.  0.
          6    2    1    2  502    0  0.13915831638E+02 -0.61054798294E+02 -0.12517107417E+03  0.22204670502E+03  0.17238214130E+03 0.  0.
         24    2    5    5    0    0  0.44770942936E+02 -0.29289743851E+02 -0.76209962344E+01  0.96344010545E+02  0.79760656705E+02 0.  0.
          4    1    6    6  501    0  0.95758329799E+01  0.11412941916E+02 -0.33479187190E+02  0.36644341928E+02  0.00000000000E+00 0. -1.
         -3    1    6    6    0  501  0.35195109956E+02 -0.40702685767E+02  0.25858190956E+02  0.59699668617E+02  0.00000000000E+00 0.  1.
          5    1    5    5  502    0 -0.30855111298E+02 -0.31765054443E+02 -0.11755007793E+03  0.12570269448E+03  0.47000000000E+01 0. -1.
         11    1    4    4    0    0 -0.18852814616E+02 -0.24482140786E+02 -0.34295289555E+02  0.46162438433E+02  0.00000000000E+00 0. -1.
        -12    1    4    4    0    0  0.20135832394E+02  0.48308893329E+02 -0.48227432363E+02  0.71169418666E+02  0.00000000000E+00 0.  1.
         -5    1    3    3    0  504 -0.15198849415E+02  0.37228045751E+02 -0.40461400685E+03  0.40663437749E+03  0.47000000000E+01 0.  1.
<mgrwt>
<rscale>  2 0.19053457E+03</rscale>
<asrwt>0</asrwt>
<pdfrwt beam="1">  1       21 0.10285010E-01 0.19297260E+03</pdfrwt>
<pdfrwt beam="2">  1       21 0.10448621E+00 0.19297260E+03</pdfrwt>
<totfact> 0.57074121E+04</totfact>
</mgrwt>
</event>
<event>
12    1  0.2791583E-001  0.1919201E+03  0.7546771E-02  0.1157050E+00
         21   -1    0    0  502  503  0.00000000000E+00  0.00000000000E+00  0.22490065356E+03  0.22490065356E+03  0.00000000000E+00 0. -1.
         21   -1    0    0  503  504 -0.00000000000E+00 -0.00000000000E+00 -0.21940994174E+03  0.21940994174E+03  0.00000000000E+00 0. -1.
         -6    2    1    2    0  504 -0.80180470975E+02  0.27976737988E+02 -0.11029037849E+03  0.22135328446E+03  0.17210956731E+03 0.  0.
        -24    2    3    3    0    0  0.56420623213E+01  0.83818607896E+01 -0.13000153397E+01  0.81173201373E+02  0.80531423207E+02 0.  0.
          6    2    1    2  502    0  0.80180470975E+02 -0.27976737988E+02  0.11578109031E+03  0.22295731085E+03  0.17056698330E+03 0.  0.
         24    2    5    5    0    0  0.10362120452E+02 -0.46762305810E+02  0.32226276778E+01  0.89095452432E+02  0.75056828670E+02 0.  0.
          4    1    6    6  501    0  0.40905097924E+02 -0.37253151280E+02 -0.63876218883E+01  0.55694039446E+02  0.00000000000E+00 0. -1.
         -3    1    6    6    0  501 -0.30542977472E+02 -0.95091545300E+01  0.96102495661E+01  0.33401412986E+02  0.00000000000E+00 0.  1.
          5    1    5    5  502    0  0.69818350523E+02  0.18785567821E+02  0.11255846264E+03  0.13386185842E+03  0.47000000000E+01 0. -1.
         13    1    4    4    0    0 -0.17230237103E+02  0.38658193817E+02 -0.66831240705E+01  0.42848584191E+02  0.00000000000E+00 0. -1.
        -14    1    4    4    0    0  0.22872299425E+02 -0.30276333027E+02  0.53831087308E+01  0.38324617182E+02  0.00000000000E+00 0.  1.
         -5    1    3    3    0  504 -0.85822533296E+02  0.19594877199E+02 -0.10899036315E+03  0.14018008309E+03  0.47000000000E+01 0.  1.
<mgrwt>
<rscale>  2 0.19157359E+03</rscale>
<asrwt>0</asrwt>
<pdfrwt beam="1">  1       21 0.34600100E-01 0.19192006E+03</pdfrwt>
<pdfrwt beam="2">  1       21 0.33755376E-01 0.19192006E+03</pdfrwt>
<totfact> 0.68089924E+04</totfact>
</mgrwt>
</event>
<event>
12    1  0.2791583E-001  0.2689363E+03  0.7546771E-02  0.1101993E+00
         21   -1    0    0  502  503  0.00000000000E+00  0.00000000000E+00  0.13363277130E+03  0.13363277130E+03  0.00000000000E+00 0.  1.
         21   -1    0    0  503  504 -0.00000000000E+00 -0.00000000000E+00 -0.57897650818E+03  0.57897650818E+03  0.00000000000E+00 0. -1.
         -6    2    1    2    0  504 -0.65933123607E+02  0.19409605202E+03 -0.12971428892E+03  0.29794230402E+03  0.17298371477E+03 0.  0.
        -24    2    3    3    0    0 -0.21099824897E+02  0.26759605195E+02 -0.10873279651E+02  0.87807141343E+02  0.80190939511E+02 0.  0.
          6    2    1    2  502    0  0.65933123607E+02 -0.19409605202E+03 -0.31562944796E+03  0.41466697546E+03  0.17408704121E+03 0.  0.
         24    2    5    5    0    0  0.58733398922E+02 -0.13913925691E+03 -0.10445421016E+03  0.19628850485E+03  0.69348036409E+02 0.  0.
          2    1    6    6  501    0  0.62951245500E+02 -0.78754440040E+02 -0.87318624236E+02  0.13337789650E+03  0.00000000000E+00 0. -1.
         -1    1    6    6    0  501 -0.42178465783E+01 -0.60384816869E+02 -0.17135585924E+02  0.62910608351E+02  0.00000000000E+00 0.  1.
          5    1    5    5  502    0  0.71997246851E+01 -0.54956795110E+02 -0.21117523780E+03  0.21837847061E+03  0.47000000000E+01 0. -1.
         11    1    4    4    0    0 -0.17718638661E+02 -0.21049115738E+02 -0.25688011049E+02  0.37641590574E+02  0.00000000000E+00 0. -1.
        -12    1    4    4    0    0 -0.33811862359E+01  0.47808720932E+02  0.14814731398E+02  0.50165550769E+02  0.00000000000E+00 0.  1.
         -5    1    3    3    0  504 -0.44833298710E+02  0.16733644682E+03 -0.11884100927E+03  0.21013516267E+03  0.47000000000E+01 0.  1.
<mgrwt>
<rscale>  2 0.26875794E+03</rscale>
<asrwt>0</asrwt>
<pdfrwt beam="1">  1       21 0.20558888E-01 0.26893633E+03</pdfrwt>
<pdfrwt beam="2">  1       21 0.89073310E-01 0.26893633E+03</pdfrwt>
<totfact> 0.22667795E+04</totfact>
</mgrwt>
</event>
<event>
12    1  0.2791583E-001  0.2120176E+03  0.7546771E-02  0.1140011E+00
         21   -1    0    0  502  503  0.00000000000E+00  0.00000000000E+00  0.41289955315E+03  0.41289955315E+03  0.00000000000E+00 0.  1.
         21   -1    0    0  503  504 -0.00000000000E+00 -0.00000000000E+00 -0.17477220711E+03  0.17477220711E+03  0.00000000000E+00 0. -1.
         -6    2    1    2    0  504  0.91051261539E+02  0.81494221895E+02 -0.61520574940E+02  0.22060184807E+03  0.17305708249E+03 0.  0.
        -24    2    3    3    0    0  0.16868815342E+00 -0.14997718548E+01 -0.55011540005E+02  0.97264494927E+02  0.80198719867E+02 0.  0.
          6    2    1    2  502    0 -0.91051261539E+02 -0.81494221895E+02  0.29964792098E+03  0.36706991219E+03  0.17326223898E+03 0.  0.
         24    2    5    5    0    0 -0.72817222250E+02 -0.34561244276E+02  0.29526847737E+03  0.31631112868E+03  0.79827494882E+02 0.  0.
          4    1    6    6  501    0 -0.83028751026E+02 -0.72152244938E+01  0.19996703643E+03  0.21663944382E+03  0.00000000000E+00 0. -1.
         -3    1    6    6    0  501  0.10211528776E+02 -0.27346019782E+02  0.95301440944E+02  0.99671684866E+02  0.00000000000E+00 0.  1.
          5    1    5    5  502    0 -0.18234039289E+02 -0.46932977619E+02  0.43794436140E+01  0.50758783509E+02  0.47000000000E+01 0. -1.
         13    1    4    4    0    0  0.20016722296E+02 -0.32112307261E+02 -0.46224213287E+02  0.59737319518E+02  0.00000000000E+00 0. -1.
        -14    1    4    4    0    0 -0.19848034143E+02  0.30612535407E+02 -0.87873267178E+01  0.37527175409E+02  0.00000000000E+00 0.  1.
         -5    1    3    3    0  504  0.90882573386E+02  0.82993993749E+02 -0.65090349348E+01  0.12333735314E+03  0.47000000000E+01 0.  1.
<mgrwt>
<rscale>  2 0.21197564E+03</rscale>
<asrwt>0</asrwt>
<pdfrwt beam="1">  1       21 0.63523008E-01 0.21201756E+03</pdfrwt>
<pdfrwt beam="2">  1       21 0.26888032E-01 0.21201756E+03</pdfrwt>
<totfact> 0.29865297E+04</totfact>
</mgrwt>
</event>
<event>
12    1  0.2791583E-001  0.2129222E+03  0.7546771E-02  0.1139365E+00
         21   -1    0    0  502  503  0.00000000000E+00  0.00000000000E+00  0.81816804816E+03  0.81816804816E+03  0.00000000000E+00 0. -1.
         21   -1    0    0  503  504 -0.00000000000E+00 -0.00000000000E+00 -0.95707660861E+02  0.95707660861E+02  0.00000000000E+00 0. -1.
         -6    2    1    2    0  504 -0.33374741822E+02  0.11855327793E+03  0.64046151695E+02  0.22188932413E+03  0.17310173169E+03 0.  0.
        -24    2    3    3    0    0 -0.35744279272E+02  0.12317641024E+03 -0.55483592776E+01  0.15194310180E+03  0.81276320991E+02 0.  0.
          6    2    1    2  502    0  0.33374741822E+02 -0.11855327793E+03  0.65841423560E+03  0.69198638489E+03  0.17368678169E+03 0.  0.
         24    2    5    5    0    0  0.10070368583E+02 -0.17723708280E+02  0.44576586099E+03  0.45544649998E+03  0.91152451225E+02 0.  0.
          2    1    6    6  501    0  0.16947989341E+02 -0.91112549461E+01  0.44384119657E+03  0.44425809737E+03  0.00000000000E+00 0. -1.
         -1    1    6    6    0  501 -0.68776207583E+01 -0.86124533340E+01  0.19246644143E+01  0.11188402604E+02  0.00000000000E+00 0.  1.
          5    1    5    5  502    0  0.23304373240E+02 -0.10082956965E+03  0.21264837462E+03  0.23653988491E+03  0.47000000000E+01 0. -1.
         11    1    4    4    0    0  0.24781847424E+02  0.24735763997E+02  0.69910909604E+01  0.35705368435E+02  0.00000000000E+00 0. -1.
        -12    1    4    4    0    0 -0.60526126696E+02  0.98440646244E+02 -0.12539450238E+02  0.11623773337E+03  0.00000000000E+00 0.  1.
         -5    1    3    3    0  504  0.23695374497E+01 -0.46231323109E+01  0.69594510973E+02  0.69946222326E+02  0.47000000000E+01 0.  1.
<mgrwt>
<rscale>  2 0.21280283E+03</rscale>
<asrwt>0</asrwt>
<pdfrwt beam="1">  1       21 0.12587200E+00 0.21292217E+03</pdfrwt>
<pdfrwt beam="2">  1       21 0.14724256E-01 0.21292217E+03</pdfrwt>
<totfact> 0.18775918E+04</totfact>
</mgrwt>
</event>
<event>
12    1  0.2791583E-001  0.3535692E+03  0.7546771E-02  0.1061269E+00
         21   -1    0    0  502  503  0.00000000000E+00  0.00000000000E+00  0.52680830179E+03  0.52680830179E+03  0.00000000000E+00 0.  1.
         21   -1    0    0  503  504 -0.00000000000E+00 -0.00000000000E+00 -0.70357851160E+03  0.70357851160E+03  0.00000000000E+00 0. -1.
         -6    2    1    2    0  504 -0.17477113438E+03 -0.25352897860E+03 -0.58963520712E+03  0.68751787998E+03  0.17375058391E+03 0.  0.
        -24    2    3    3    0    0 -0.13126600674E+03 -0.26543681553E+03 -0.49211021733E+03  0.57996460785E+03  0.80616454848E+02 0.  0.
          6    2    1    2  502    0  0.17477113438E+03  0.25352897860E+03  0.41286499732E+03  0.54286893341E+03  0.17154381495E+03 0.  0.
         24    2    5    5    0    0  0.11024341262E+03  0.14689247420E+03  0.35014678735E+03  0.40325935348E+03  0.79273731290E+02 0.  0.
          4    1    6    6  501    0  0.66660522292E+02  0.26700122568E+02  0.11420658957E+03  0.13490614100E+03  0.00000000000E+00 0. -1.
         -3    1    6    6    0  501  0.43582890324E+02  0.12019235163E+03  0.23594019778E+03  0.26835321248E+03  0.00000000000E+00 0.  1.
          5    1    5    5  502    0  0.64527721765E+02  0.10663650440E+03  0.62718209967E+02  0.13960957993E+03  0.47000000000E+01 0. -1.
         11    1    4    4    0    0 -0.13750464823E+03 -0.24593631510E+03 -0.47876532960E+03  0.55552537313E+03  0.00000000000E+00 0. -1.
        -12    1    4    4    0    0  0.62386414939E+01 -0.19500500435E+02 -0.13344887728E+02  0.24439234714E+02  0.00000000000E+00 0.  1.
         -5    1    3    3    0  504 -0.43505127642E+02  0.11907836934E+02 -0.97524989797E+02  0.10755327213E+03  0.47000000000E+01 0.  1.
<mgrwt>
<rscale>  2 0.35329906E+03</rscale>
<asrwt>0</asrwt>
<pdfrwt beam="1">  1       21 0.81047431E-01 0.35356917E+03</pdfrwt>
<pdfrwt beam="2">  1       21 0.10824285E+00 0.35356917E+03</pdfrwt>
<totfact> 0.80289258E+02</totfact>
</mgrwt>
</event>
<event>
12    1  0.2791583E-001  0.3287500E+03  0.7546771E-02  0.1071772E+00
         21   -1    0    0  502  503  0.00000000000E+00  0.00000000000E+00  0.22696396599E+03  0.22696396599E+03  0.00000000000E+00 0.  1.
         21   -1    0    0  503  504 -0.00000000000E+00 -0.00000000000E+00 -0.54212338176E+03  0.54212338176E+03  0.00000000000E+00 0. -1.
         -6    2    1    2    0  504 -0.17549303238E+03 -0.21777700591E+03 -0.29290618508E+03  0.44030735466E+03  0.17277703722E+03 0.  0.
        -24    2    3    3    0    0 -0.11798424322E+03 -0.73589120274E+02 -0.90082994808E+02  0.18485335937E+03  0.81976693309E+02 0.  0.
          6    2    1    2  502    0  0.17549303238E+03  0.21777700591E+03 -0.22253230690E+02  0.32877999309E+03  0.17139559173E+03 0.  0.
         24    2    5    5    0    0  0.11162101037E+03  0.16961519781E+03 -0.77288337041E+02  0.23156812198E+03  0.80135777203E+02 0.  0.
          2    1    6    6  501    0  0.41456132872E+01  0.72961995265E+02 -0.34573573432E+02  0.80845351397E+02  0.00000000000E+00 0. -1.
         -1    1    6    6    0  501  0.10747539709E+03  0.96653202549E+02 -0.42714763608E+02  0.15072277058E+03  0.00000000000E+00 0.  1.
          5    1    5    5  502    0  0.63872022003E+02  0.48161808100E+02  0.55035106350E+02  0.97211871113E+02  0.47000000000E+01 0. -1.
         13    1    4    4    0    0  0.12559664343E+02 -0.68505320077E+01 -0.12389878039E+02  0.18925750580E+02  0.00000000000E+00 0. -1.
        -14    1    4    4    0    0 -0.13054390756E+03 -0.66738588266E+02 -0.77693116769E+02  0.16592760879E+03  0.00000000000E+00 0.  1.
         -5    1    3    3    0  504 -0.57508789155E+02 -0.14418788564E+03 -0.20282319027E+03  0.25545399528E+03  0.47000000000E+01 0.  1.
<mgrwt>
<rscale>  2 0.32856883E+03</rscale>
<asrwt>0</asrwt>
<pdfrwt beam="1">  1       21 0.34917533E-01 0.32874996E+03</pdfrwt>
<pdfrwt beam="2">  1       21 0.83403597E-01 0.32874996E+03</pdfrwt>
<totfact> 0.91836237E+03</totfact>
</mgrwt>
</event>
<event>
12    1  0.2791583E-001  0.2424084E+03  0.7546771E-02  0.1118490E+00
         21   -1    0    0  502  503  0.00000000000E+00  0.00000000000E+00  0.99670885720E+02  0.99670885720E+02  0.00000000000E+00 0. -1.
         21   -1    0    0  503  504 -0.00000000000E+00 -0.00000000000E+00 -0.75007617942E+03  0.75007617942E+03  0.00000000000E+00 0.  1.
         -6    2    1    2    0  504 -0.57611555020E+02  0.15852905274E+03 -0.12512299475E+03  0.27122883824E+03  0.17163556463E+03 0.  0.
        -24    2    3    3    0    0 -0.14001106093E+02  0.14592796066E+03 -0.36445663050E+02  0.17149710842E+03  0.81190954952E+02 0.  0.
          6    2    1    2  502    0  0.57611555020E+02 -0.15852905274E+03 -0.52528229895E+03  0.57851822690E+03  0.17410138835E+03 0.  0.
         24    2    5    5    0    0  0.10286484260E+03 -0.13587656532E+03 -0.36940252607E+03  0.41456216932E+03  0.79749289116E+02 0.  0.
          4    1    6    6  501    0  0.91107264236E+02 -0.70165512269E+02 -0.17859505978E+03  0.21241451948E+03  0.00000000000E+00 0. -1.
         -3    1    6    6    0  501  0.11757578367E+02 -0.65711053054E+02 -0.19080746628E+03  0.20214764983E+03  0.00000000000E+00 0.  1.
          5    1    5    5  502    0 -0.45253287583E+02 -0.22652487411E+02 -0.15587977289E+03  0.16395605758E+03  0.47000000000E+01 0. -1.
         13    1    4    4    0    0 -0.31754317686E+02  0.13482159859E+03 -0.11588320487E+02  0.13899456575E+03  0.00000000000E+00 0. -1.
        -14    1    4    4    0    0  0.17753211593E+02  0.11106362075E+02 -0.24857342563E+02  0.32502542665E+02  0.00000000000E+00 0.  1.
         -5    1    3    3    0  504 -0.43610448928E+02  0.12601092075E+02 -0.88677331697E+02  0.99731729826E+02  0.47000000000E+01 0.  1.
<mgrwt>
<rscale>  2 0.24196600E+03</rscale>
<asrwt>0</asrwt>
<pdfrwt beam="1">  1       21 0.15333982E-01 0.24240843E+03</pdfrwt>
<pdfrwt beam="2">  1       21 0.11539634E+00 0.24240843E+03</pdfrwt>
<totfact> 0.21287068E+04</totfact>
</mgrwt>
</event>
<event>
12    1  0.2791583E-001  0.1825085E+03  0.7546771E-02  0.1165523E+00
         21   -1    0    0  502  503  0.00000000000E+00  0.00000000000E+00  0.17878232996E+03  0.17878232996E+03  0.00000000000E+00 0. -1.
         21   -1    0    0  503  504 -0.00000000000E+00 -0.00000000000E+00 -0.33759197421E+03  0.33759197421E+03  0.00000000000E+00 0. -1.
         -6    2    1    2    0  504  0.25092831154E+01 -0.57645911503E+02 -0.25260938661E+03  0.31164218510E+03  0.17314734107E+03 0.  0.
        -24    2    3    3    0    0  0.92471643445E+01 -0.93483011289E+02 -0.24489157034E+03  0.27407422731E+03  0.79499795009E+02 0.  0.
          6    2    1    2  502    0 -0.25092831154E+01  0.57645911503E+02  0.93799742360E+02  0.20473211907E+03  0.17259055970E+03 0.  0.
         24    2    5    5    0    0  0.11034763916E+02 -0.19074023892E+02  0.68004974646E-01  0.82760326059E+02  0.79772692963E+02 0.  0.
          2    1    6    6  501    0  0.40787130361E+01 -0.23880813299E+02  0.37356856037E+02  0.44524867623E+02  0.00000000000E+00 0. -1.
         -1    1    6    6    0  501  0.69560508801E+01  0.48067894068E+01 -0.37288851063E+02  0.38235458436E+02  0.00000000000E+00 0.  1.
          5    1    5    5  502    0 -0.13544047032E+02  0.76719935396E+02  0.93731737385E+02  0.12197179301E+03  0.47000000000E+01 0. -1.
         13    1    4    4    0    0 -0.54558477506E+01 -0.65148415100E+02 -0.22950953859E+03  0.23863928966E+03  0.00000000000E+00 0. -1.
        -14    1    4    4    0    0  0.14703012095E+02 -0.28334596189E+02 -0.15382031746E+02  0.35434937653E+02  0.00000000000E+00 0.  1.
         -5    1    3    3    0  504 -0.67378812291E+01  0.35837099786E+02 -0.77178162697E+01  0.37567957790E+02  0.47000000000E+01 0.  1.
<mgrwt>
<rscale>  2 0.18237631E+03</rscale>
<asrwt>0</asrwt>
<pdfrwt beam="1">  1       21 0.27504974E-01 0.18250849E+03</pdfrwt>
<pdfrwt beam="2">  1       21 0.51937226E-01 0.18250849E+03</pdfrwt>
<totfact> 0.44599395E+04</totfact>
</mgrwt>
</event>
<event>
12    1  0.2791583E-001  0.1762049E+03  0.7546771E-02  0.1171688E+00
         21   -1    0    0  502  503  0.00000000000E+00  0.00000000000E+00  0.36528983150E+03  0.36528983150E+03  0.00000000000E+00 0. -1.
         21   -1    0    0  503  504 -0.00000000000E+00 -0.00000000000E+00 -0.97810806945E+02  0.97810806945E+02  0.00000000000E+00 0. -1.
         -6    2    1    2    0  504  0.22490154519E+02  0.21557503870E+02  0.49131239665E+02  0.18292634865E+03  0.17342905551E+03 0.  0.
        -24    2    3    3    0    0  0.87863786752E+01  0.56554070871E+02  0.85289081874E+02  0.13056192630E+03  0.80601648437E+02 0.  0.
          6    2    1    2  502    0 -0.22490154519E+02 -0.21557503870E+02  0.21834778489E+03  0.28017428980E+03  0.17277541629E+03 0.  0.
         24    2    5    5    0    0 -0.34045796308E+02 -0.22766849248E+02  0.34344502852E+02  0.95744646916E+02  0.79435803426E+02 0.  0.
          2    1    6    6  501    0  0.10467500494E+02 -0.31192278264E+02 -0.78607018008E+01  0.33827761125E+02  0.00000000000E+00 0. -1.
         -1    1    6    6    0  501 -0.44513296802E+02  0.84254290161E+01  0.42205204652E+02  0.61916885791E+02  0.00000000000E+00 0.  1.
          5    1    5    5  502    0  0.11555641788E+02  0.12093453780E+01  0.18400328204E+03  0.18442964288E+03  0.47000000000E+01 0. -1.
         13    1    4    4    0    0 -0.89013129750E+00  0.57881920302E+02  0.15275406056E+02  0.59870251893E+02  0.00000000000E+00 0. -1.
        -14    1    4    4    0    0  0.96765099727E+01 -0.13278494313E+01  0.70013675818E+02  0.70691674410E+02  0.00000000000E+00 0.  1.
         -5    1    3    3    0  504  0.13703775844E+02 -0.34996567000E+02 -0.36157842208E+02  0.52364422343E+02  0.47000000000E+01 0.  1.
<mgrwt>
<rscale>  2 0.17604386E+03</rscale>
<asrwt>0</asrwt>
<pdfrwt beam="1">  1       21 0.56198435E-01 0.17620491E+03</pdfrwt>
<pdfrwt beam="2">  1       21 0.15047817E-01 0.17620491E+03</pdfrwt>
<totfact> 0.11691725E+05</totfact>
</mgrwt>
</event>
<event>
12    1  0.2791583E-001  0.1758800E+03  0.7546771E-02  0.1172182E+00
         21   -1    0    0  502  503  0.00000000000E+00  0.00000000000E+00  0.16569790154E+03  0.16569790154E+03  0.00000000000E+00 0.  1.
         21   -1    0    0  503  504 -0.00000000000E+00 -0.00000000000E+00 -0.28155254358E+03  0.28155254358E+03  0.00000000000E+00 0.  1.
         -6    2    1    2    0  504  0.19296619695E+02  0.23497414115E+02 -0.18854277283E+03  0.25694195473E+03  0.17189038052E+03 0.  0.
        -24    2    3    3    0    0  0.50399085621E+02  0.46201370708E+02 -0.58178677464E+02  0.12092827751E+03  0.81020091974E+02 0.  0.
          6    2    1    2  502    0 -0.19296619695E+02 -0.23497414115E+02  0.72688130786E+02  0.19030849039E+03  0.17323183644E+03 0.  0.
         24    2    5    5    0    0  0.15643727238E+02  0.15115291989E+02 -0.15860269110E+02  0.87475236816E+02  0.83229626131E+02 0.  0.
          4    1    6    6  501    0 -0.11218962165E+01  0.48138416442E+02 -0.14986046018E+02  0.50429627839E+02  0.00000000000E+00 0. -1.
         -3    1    6    6    0  501  0.16765623454E+02 -0.33023124453E+02 -0.87422309276E+00  0.37045608977E+02  0.00000000000E+00 0.  1.
          5    1    5    5  502    0 -0.34940346933E+02 -0.38612706104E+02  0.88548399897E+02  0.10283325357E+03  0.47000000000E+01 0. -1.
         11    1    4    4    0    0 -0.11196809036E+02 -0.14779344287E+02 -0.48682798055E+01  0.19170229482E+02  0.00000000000E+00 0. -1.
        -12    1    4    4    0    0  0.61595894657E+02  0.60980714996E+02 -0.53310397659E+02  0.10175804803E+03  0.00000000000E+00 0.  1.
         -5    1    3    3    0  504 -0.31102465926E+02 -0.22703956594E+02 -0.13036409536E+03  0.13601367722E+03  0.47000000000E+01 0.  1.
<mgrwt>
<rscale>  2 0.17554874E+03</rscale>
<asrwt>0</asrwt>
<pdfrwt beam="1">  1       21 0.25491985E-01 0.17587995E+03</pdfrwt>
<pdfrwt beam="2">  1       21 0.43315776E-01 0.17587995E+03</pdfrwt>
<totfact> 0.75296968E+04</totfact>
</mgrwt>
</event>
<event>
12    1  0.2791583E-001  0.1748065E+03  0.7546771E-02  0.1172937E+00
         21   -1    0    0  502  503  0.00000000000E+00  0.00000000000E+00  0.69777054376E+03  0.69777054376E+03  0.00000000000E+00 0.  1.
         21   -1    0    0  503  504 -0.00000000000E+00 -0.00000000000E+00 -0.91752611954E+02  0.91752611954E+02  0.00000000000E+00 0.  1.
         -6    2    1    2    0  504  0.17757660050E+02  0.23847317597E+02  0.17588331060E+02  0.17568908162E+03  0.17225932475E+03 0.  0.
        -24    2    3    3    0    0 -0.48108642297E+02  0.42420311465E+02  0.29415113896E+02  0.10608097377E+03  0.79208584019E+02 0.  0.
          6    2    1    2  502    0 -0.17757660050E+02 -0.23847317597E+02  0.58842960074E+03  0.61383407409E+03  0.17221743941E+03 0.  0.
         24    2    5    5    0    0 -0.57169511000E+02  0.26240592218E+02  0.25859266615E+03  0.27786296502E+03  0.79879526027E+02 0.  0.
          2    1    6    6  501    0 -0.60168874351E+02 -0.92257542545E+01  0.11727464169E+03  0.13213156158E+03  0.00000000000E+00 0. -1.
         -1    1    6    6    0  501  0.29993633516E+01  0.35466346472E+02  0.14131802446E+03  0.14573140345E+03  0.00000000000E+00 0.  1.
          5    1    5    5  502    0  0.39411850950E+02 -0.50087909815E+02  0.32983693460E+03  0.33597110907E+03  0.47000000000E+01 0. -1.
         13    1    4    4    0    0 -0.48409583364E+02  0.47385158039E+02  0.50451746027E+02  0.84464309865E+02  0.00000000000E+00 0. -1.
        -14    1    4    4    0    0  0.30094106693E+00 -0.49648465738E+01 -0.21036632131E+02  0.21616663906E+02  0.00000000000E+00 0.  1.
         -5    1    3    3    0  504  0.65866302347E+02 -0.18572993868E+02 -0.11826782837E+02  0.69608107849E+02  0.47000000000E+01 0.  1.
<mgrwt>
<rscale>  2 0.17479616E+03</rscale>
<asrwt>0</asrwt>
<pdfrwt beam="1">  1       21 0.10734931E+00 0.17480648E+03</pdfrwt>
<pdfrwt beam="2">  1       21 0.14115787E-01 0.17480648E+03</pdfrwt>
<totfact> 0.30659442E+04</totfact>
</mgrwt>
</event>
<event>
12    1  0.2791583E-001  0.1831356E+03  0.7546771E-02  0.1164848E+00
         21   -1    0    0  502  503  0.00000000000E+00  0.00000000000E+00  0.96099202894E+02  0.96099202894E+02  0.00000000000E+00 0. -1.
         21   -1    0    0  503  504 -0.00000000000E+00 -0.00000000000E+00 -0.48363096985E+03  0.48363096985E+03  0.00000000000E+00 0. -1.
         -6    2    1    2    0  504  0.24958590391E+02 -0.52071510243E+02 -0.34683577033E+03  0.39212736190E+03  0.17359275030E+03 0.  0.
        -24    2    3    3    0    0 -0.43833041821E+02 -0.66131445397E+02 -0.21773041001E+03  0.24508908626E+03  0.79796147377E+02 0.  0.
          6    2    1    2  502    0 -0.24958590391E+02  0.52071510243E+02 -0.40695996631E+02  0.18760281085E+03  0.17379377746E+03 0.  0.
         24    2    5    5    0    0 -0.69699586476E+02 -0.18256166385E+01 -0.48015543999E+02  0.11701724015E+03  0.80784755966E+02 0.  0.
          2    1    6    6  501    0 -0.39725814925E+02 -0.38563791314E+02 -0.10036572793E+02  0.56267567616E+02  0.00000000000E+00 0. -1.
         -1    1    6    6    0  501 -0.29973771551E+02  0.36738174676E+02 -0.37978971206E+02  0.60749672537E+02  0.00000000000E+00 0.  1.
          5    1    5    5  502    0  0.44740996085E+02  0.53897126882E+02  0.73195473674E+01  0.70585570696E+02  0.47000000000E+01 0. -1.
         13    1    4    4    0    0  0.11921822754E+02  0.68886146137E+01 -0.68310085388E+02  0.69683933835E+02  0.00000000000E+00 0. -1.
        -14    1    4    4    0    0 -0.55754864575E+02 -0.73020060011E+02 -0.14942032462E+03  0.17540515242E+03  0.00000000000E+00 0.  1.
         -5    1    3    3    0  504  0.68791632212E+02  0.14059935154E+02 -0.12910536032E+03  0.14703827564E+03  0.47000000000E+01 0.  1.
<mgrwt>
<rscale>  2 0.18308790E+03</rscale>
<asrwt>0</asrwt>
<pdfrwt beam="1">  1       21 0.14784493E-01 0.18313561E+03</pdfrwt>
<pdfrwt beam="2">  1       21 0.74404765E-01 0.18313561E+03</pdfrwt>
<totfact> 0.65458586E+04</totfact>
</mgrwt>
</event>
<event>
12    1  0.2791583E-001  0.2339776E+03  0.7546771E-02  0.1124217E+00
         21   -1    0    0  502  503  0.00000000000E+00  0.00000000000E+00  0.59037579382E+02  0.59037579382E+02  0.00000000000E+00 0.  1.
         21   -1    0    0  503  504 -0.00000000000E+00 -0.00000000000E+00 -0.10459376936E+04  0.10459376936E+04  0.00000000000E+00 0.  1.
         -6    2    1    2    0  504 -0.14766904663E+03 -0.43894789913E+02 -0.68376016073E+03  0.72204009611E+03  0.17343887418E+03 0.  0.
        -24    2    3    3    0    0 -0.11713265874E+03 -0.38841354973E+02 -0.28641630506E+03  0.32346483618E+03  0.85828257826E+02 0.  0.
          6    2    1    2  502    0  0.14766904663E+03  0.43894789913E+02 -0.30313995347E+03  0.38293517685E+03  0.17610399873E+03 0.  0.
         24    2    5    5    0    0  0.17958960672E+03  0.38718660061E+02 -0.26189374720E+03  0.33031337521E+03  0.82261956807E+02 0.  0.
          2    1    6    6  501    0  0.33943761440E+02  0.43405818996E+02 -0.82194146751E+02  0.98955150566E+02  0.00000000000E+00 0. -1.
         -1    1    6    6    0  501  0.14564584528E+03 -0.46871589348E+01 -0.17969960045E+03  0.23135822464E+03  0.00000000000E+00 0.  1.
          5    1    5    5  502    0 -0.31920560095E+02  0.51761298521E+01 -0.41246206265E+02  0.52621801644E+02  0.47000000000E+01 0. -1.
         11    1    4    4    0    0 -0.56912967799E+01 -0.18288345938E+02 -0.45710865282E+01  0.19691350594E+02  0.00000000000E+00 0. -1.
        -12    1    4    4    0    0 -0.11144136196E+03 -0.20553009035E+02 -0.28184521854E+03  0.30377348559E+03  0.00000000000E+00 0.  1.
         -5    1    3    3    0  504 -0.30536387889E+02 -0.50534349404E+01 -0.39734385567E+03  0.39857525993E+03  0.47000000000E+01 0.  1.
<mgrwt>
<rscale>  2 0.23347617E+03</rscale>
<asrwt>0</asrwt>
<pdfrwt beam="1">  1       21 0.90827058E-02 0.23397760E+03</pdfrwt>
<pdfrwt beam="2">  1       21 0.16091347E+00 0.23397760E+03</pdfrwt>
<totfact> 0.23209556E+04</totfact>
</mgrwt>
</event>
<event>
12    1  0.2791583E-001  0.1793215E+03  0.7546771E-02  0.1168592E+00
         21   -1    0    0  502  503  0.00000000000E+00  0.00000000000E+00  0.18689717009E+03  0.18689717009E+03  0.00000000000E+00 0.  1.
         21   -1    0    0  503  504 -0.00000000000E+00 -0.00000000000E+00 -0.17430338653E+03  0.17430338653E+03  0.00000000000E+00 0.  1.
         -6    2    1    2    0  504 -0.44716292753E+02 -0.11797932727E+02  0.29031642217E+02  0.18112721497E+03  0.17270058975E+03 0.  0.
        -24    2    3    3    0    0 -0.13925833861E+02 -0.68998200780E+02 -0.78270776440E+01  0.10629020372E+03  0.79256947341E+02 0.  0.
          6    2    1    2  502    0  0.44716292753E+02  0.11797932727E+02 -0.16437858661E+02  0.18007334165E+03  0.17325549666E+03 0.  0.
         24    2    5    5    0    0  0.23425288870E+02  0.52217632802E+02 -0.61576518093E+02  0.11567887313E+03  0.79463883458E+02 0.  0.
          2    1    6    6  501    0 -0.15047679425E+02  0.14129771985E+02 -0.57839745953E+02  0.61412696767E+02  0.00000000000E+00 0. -1.
         -1    1    6    6    0  501  0.38472968295E+02  0.38087860817E+02 -0.37367721404E+01  0.54266176363E+02  0.00000000000E+00 0.  1.
          5    1    5    5  502    0  0.21291003883E+02 -0.40419700074E+02  0.45138659432E+02  0.64394468519E+02  0.47000000000E+01 0. -1.
         11    1    4    4    0    0 -0.15042017088E+02 -0.75364389534E+02  0.18612067313E+02  0.79072514425E+02  0.00000000000E+00 0. -1.
        -12    1    4    4    0    0  0.11161832265E+01  0.63661887539E+01 -0.26439144957E+02  0.27217689290E+02  0.00000000000E+00 0.  1.
         -5    1    3    3    0  504 -0.30790458892E+02  0.57200268053E+02  0.36858719861E+02  0.74837011257E+02  0.47000000000E+01 0.  1.
<mgrwt>
<rscale>  2 0.17918734E+03</rscale>
<asrwt>0</asrwt>
<pdfrwt beam="1">  1       21 0.28753411E-01 0.17932151E+03</pdfrwt>
<pdfrwt beam="2">  1       21 0.26815906E-01 0.17932151E+03</pdfrwt>
<totfact> 0.15390204E+05</totfact>
</mgrwt>
</event>
<event>
12    1  0.2791583E-001  0.2181721E+03  0.7546771E-02  0.1135675E+00
         21   -1    0    0  502  503  0.00000000000E+00  0.00000000000E+00  0.12736025978E+03  0.12736025978E+03  0.00000000000E+00 0. -1.
         21   -1    0    0  503  504 -0.00000000000E+00 -0.00000000000E+00 -0.56398769118E+03  0.56398769118E+03  0.00000000000E+00 0.  1.
         -6    2    1    2    0  504 -0.11253794259E+03 -0.64661673165E+02 -0.42034422474E+03  0.47256905119E+03  0.17258713850E+03 0.  0.
        -24    2    3    3    0    0 -0.75443755569E+02 -0.97943172809E+02 -0.20724460317E+03  0.25366912967E+03  0.78186165340E+02 0.  0.
          6    2    1    2  502    0  0.11253794259E+03  0.64661673165E+02 -0.16283206668E+02  0.21877889977E+03  0.17536574256E+03 0.  0.
         24    2    5    5    0    0  0.24804612789E+02  0.31368014853E+00  0.30632208870E+02  0.10020003328E+03  0.92121372317E+02 0.  0.
          2    1    6    6  501    0  0.10162618464E+02  0.39513319856E+02  0.40198355998E+02  0.57275553992E+02  0.00000000000E+00 0. -1.
         -1    1    6    6    0  501  0.14641994324E+02 -0.39199639707E+02 -0.95661471282E+01  0.42924479285E+02  0.00000000000E+00 0.  1.
          5    1    5    5  502    0  0.87733329799E+02  0.64347993017E+02 -0.46915415538E+02  0.11857886649E+03  0.47000000000E+01 0. -1.
         13    1    4    4    0    0  0.15232442718E+02 -0.12806085886E+02 -0.15996861485E+02  0.25532777449E+02  0.00000000000E+00 0. -1.
        -14    1    4    4    0    0 -0.90676198287E+02 -0.85137086923E+02 -0.19124774168E+03  0.22813635222E+03  0.00000000000E+00 0.  1.
         -5    1    3    3    0  504 -0.37094187019E+02  0.33281499644E+02 -0.21309962157E+03  0.21889992152E+03  0.47000000000E+01 0.  1.
<mgrwt>
<rscale>  2 0.21761318E+03</rscale>
<asrwt>0</asrwt>
<pdfrwt beam="1">  1       21 0.19593887E-01 0.21817210E+03</pdfrwt>
<pdfrwt beam="2">  1       21 0.86767335E-01 0.21817210E+03</pdfrwt>
<totfact> 0.27024626E+04</totfact>
</mgrwt>
</event>
<event>
12    1  0.2791583E-001  0.1819812E+03  0.7546771E-02  0.1166126E+00
         21   -1    0    0  502  503  0.00000000000E+00  0.00000000000E+00  0.16782288928E+03  0.16782288928E+03  0.00000000000E+00 0. -1.
         21   -1    0    0  503  504 -0.00000000000E+00 -0.00000000000E+00 -0.20481616358E+03  0.20481616358E+03  0.00000000000E+00 0. -1.
         -6    2    1    2    0  504 -0.20012751590E+02  0.50024494980E+02 -0.56430565490E+02  0.18962273041E+03  0.17282769119E+03 0.  0.
        -24    2    3    3    0    0  0.43990513247E+01  0.28350558279E+01  0.31505129332E+02  0.86775485852E+02  0.80684710922E+02 0.  0.
          6    2    1    2  502    0  0.20012751590E+02 -0.50024494980E+02  0.19437291189E+02  0.18301632245E+03  0.17382233938E+03 0.  0.
         24    2    5    5    0    0  0.46033330134E+02 -0.38382893976E+02 -0.47616815401E+02  0.11000303193E+03  0.78999948678E+02 0.  0.
          4    1    6    6  501    0 -0.95431322263E+01  0.11954706199E+02 -0.28930671490E+02  0.32725679915E+02  0.00000000000E+00 0. -1.
         -3    1    6    6    0  501  0.55576462361E+02 -0.50337600175E+02 -0.18686143911E+02  0.77277352013E+02  0.00000000000E+00 0.  1.
          5    1    5    5  502    0 -0.26020578545E+02 -0.11641601003E+02  0.67054106590E+02  0.73013290518E+02  0.47000000000E+01 0. -1.
         11    1    4    4    0    0 -0.24910535219E+02 -0.12936036993E+02 -0.13218773840E+02  0.31025985880E+02  0.00000000000E+00 0. -1.
        -12    1    4    4    0    0  0.29309586544E+02  0.15771092821E+02  0.44723903172E+02  0.55749499972E+02  0.00000000000E+00 0.  1.
         -5    1    3    3    0  504 -0.24411802914E+02  0.47189439152E+02 -0.87935694822E+02  0.10284724456E+03  0.47000000000E+01 0.  1.
<mgrwt>
<rscale>  2 0.18174330E+03</rscale>
<asrwt>0</asrwt>
<pdfrwt beam="1">  1       21 0.25818906E-01 0.18198122E+03</pdfrwt>
<pdfrwt beam="2">  1       21 0.31510179E-01 0.18198122E+03</pdfrwt>
<totfact> 0.13835573E+05</totfact>
</mgrwt>
</event>
<event>
12    1  0.2791583E-001  0.2539396E+03  0.7546771E-02  0.1111416E+00
         21   -1    0    0  502  503  0.00000000000E+00  0.00000000000E+00  0.40381363006E+03  0.40381363006E+03  0.00000000000E+00 0.  1.
         21   -1    0    0  503  504 -0.00000000000E+00 -0.00000000000E+00 -0.20141915335E+03  0.20141915335E+03  0.00000000000E+00 0. -1.
         -6    2    1    2    0  504 -0.11311546937E+03  0.14686533822E+03 -0.40882896408E+02  0.25356643251E+03  0.16810707152E+03 0.  0.
        -24    2    3    3    0    0 -0.27257003065E+02  0.11039150899E+03 -0.69980814338E+02  0.15573599101E+03  0.80169539406E+02 0.  0.
          6    2    1    2  502    0  0.11311546937E+03 -0.14686533822E+03  0.24327737312E+03  0.35166635090E+03  0.17355346469E+03 0.  0.
         24    2    5    5    0    0  0.85839312862E+02 -0.15471156692E+02  0.12638964345E+03  0.17364036685E+03  0.81048693418E+02 0.  0.
          4    1    6    6  501    0  0.79105886295E+02 -0.73915931320E+00  0.45741083782E+02  0.91381258191E+02  0.00000000000E+00 0. -1.
         -3    1    6    6    0  501  0.67334265676E+01 -0.14731997379E+02  0.80648559670E+02  0.82259108656E+02  0.00000000000E+00 0.  1.
          5    1    5    5  502    0  0.27276156506E+02 -0.13139418153E+03  0.11688772966E+03  0.17802598406E+03  0.47000000000E+01 0. -1.
         11    1    4    4    0    0  0.43890882123E+01  0.87201226509E+02 -0.15622883454E+02  0.88698322912E+02  0.00000000000E+00 0. -1.
        -12    1    4    4    0    0 -0.31646091277E+02  0.23190282482E+02 -0.54357930883E+02  0.67037668103E+02  0.00000000000E+00 0.  1.
         -5    1    3    3    0  504 -0.85858466303E+02  0.36473829229E+02  0.29097917929E+02  0.97830441491E+02  0.47000000000E+01 0.  1.
<mgrwt>
<rscale>  2 0.25301189E+03</rscale>
<asrwt>0</asrwt>
<pdfrwt beam="1">  1       21 0.62125174E-01 0.25393964E+03</pdfrwt>
<pdfrwt beam="2">  1       21 0.30987562E-01 0.25393964E+03</pdfrwt>
<totfact> 0.23285875E+04</totfact>
</mgrwt>
</event>
<event>
12    1  0.2791583E-001  0.2363183E+03  0.7546771E-02  0.1122484E+00
         21   -1    0    0  502  503  0.00000000000E+00  0.00000000000E+00  0.64171474347E+03  0.64171474347E+03  0.00000000000E+00 0.  1.
         21   -1    0    0  503  504 -0.00000000000E+00 -0.00000000000E+00 -0.98845230032E+02  0.98845230032E+02  0.00000000000E+00 0. -1.
         -6    2    1    2    0  504 -0.15584205018E+03 -0.38769896473E+02  0.14028394693E+03  0.27373937128E+03  0.17165024947E+03 0.  0.
        -24    2    3    3    0    0 -0.69361729854E+02  0.40661692933E+02  0.99891100859E+02  0.14947394884E+03  0.76810197967E+02 0.  0.
          6    2    1    2  502    0  0.15584205018E+03  0.38769896473E+02  0.40258556651E+03  0.46682060223E+03  0.17336806750E+03 0.  0.
         24    2    5    5    0    0  0.13462613250E+03 -0.34104684306E+02  0.32450954127E+03  0.35783080728E+03  0.58729202415E+02 0.  0.
          2    1    6    6  501    0  0.11645666495E+03 -0.52212011110E+01  0.24576774106E+03  0.27201323185E+03  0.00000000000E+00 0. -1.
         -1    1    6    6    0  501  0.18169467549E+02 -0.28883483195E+02  0.78741800213E+02  0.85817575434E+02  0.00000000000E+00 0.  1.
          5    1    5    5  502    0  0.21215917672E+02  0.72874580779E+02  0.78076025232E+02  0.10898979495E+03  0.47000000000E+01 0. -1.
         11    1    4    4    0    0 -0.28286028304E+02  0.51713847471E+02  0.26456544633E+02  0.64609365973E+02  0.00000000000E+00 0. -1.
        -12    1    4    4    0    0 -0.41075701549E+02 -0.11052154539E+02  0.73434556226E+02  0.84864582871E+02  0.00000000000E+00 0.  1.
         -5    1    3    3    0  504 -0.86480320322E+02 -0.79431589405E+02  0.40392846073E+02  0.12426542243E+03  0.47000000000E+01 0.  1.
<mgrwt>
<rscale>  2 0.23600333E+03</rscale>
<asrwt>0</asrwt>
<pdfrwt beam="1">  1       21 0.98725343E-01 0.23631829E+03</pdfrwt>
<pdfrwt beam="2">  1       21 0.15206959E-01 0.23631829E+03</pdfrwt>
<totfact> 0.31637023E+04</totfact>
</mgrwt>
</event>
<event>
12    1  0.2791583E-001  0.1786826E+03  0.7546771E-02  0.1169785E+00
         21   -1    0    0  502  503  0.00000000000E+00  0.00000000000E+00  0.54427539249E+02  0.54427539249E+02  0.00000000000E+00 0.  1.
         21   -1    0    0  503  504 -0.00000000000E+00 -0.00000000000E+00 -0.59378488544E+03  0.59378488544E+03  0.00000000000E+00 0.  1.
         -6    2    1    2    0  504  0.88463578476E+01 -0.39553332072E+02 -0.21778209829E+03  0.28170286843E+03  0.17402511204E+03 0.  0.
        -24    2    3    3    0    0 -0.55988586084E+02 -0.19112351524E+02 -0.16346833457E+03  0.19456230055E+03  0.87364687578E+02 0.  0.
          6    2    1    2  502    0 -0.88463578476E+01  0.39553332072E+02 -0.32157524791E+03  0.36650955627E+03  0.17110198901E+03 0.  0.
         24    2    5    5    0    0  0.35453317393E+00  0.39014459840E+02 -0.33663034769E+03  0.34824229571E+03  0.80190097662E+02 0.  0.
          4    1    6    6  501    0  0.16576705859E+02 -0.95107494012E+01 -0.22066802759E+03  0.22149406297E+03  0.00000000000E+00 0. -1.
         -3    1    6    6    0  501 -0.16222172685E+02  0.48525209241E+02 -0.11596232010E+03  0.12674823273E+03  0.00000000000E+00 0.  1.
          5    1    5    5  502    0 -0.92008910216E+01  0.53887223211E+00  0.15055099784E+02  0.18267260560E+02  0.47000000000E+01 0. -1.
         11    1    4    4    0    0  0.10928283335E+02 -0.97384741231E+01  0.29653664982E+01  0.14935148254E+02  0.00000000000E+00 0. -1.
        -12    1    4    4    0    0 -0.66916869420E+02 -0.93738774009E+01 -0.16643370107E+03  0.17962715230E+03  0.00000000000E+00 0.  1.
         -5    1    3    3    0  504  0.64834943932E+02 -0.20440980548E+02 -0.54313763714E+02  0.87140567872E+02  0.47000000000E+01 0.  1.
<mgrwt>
<rscale>  2 0.17796687E+03</rscale>
<asrwt>0</asrwt>
<pdfrwt beam="1">  1       21 0.83734675E-02 0.17868258E+03</pdfrwt>
<pdfrwt beam="2">  1       21 0.91351521E-01 0.17868258E+03</pdfrwt>
<totfact> 0.11309145E+05</totfact>
</mgrwt>
</event>
<event>
12    1  0.2791583E-001  0.2628104E+03  0.7546771E-02  0.1105574E+00
         21   -1    0    0  502  503  0.00000000000E+00  0.00000000000E+00  0.11717299515E+03  0.11717299515E+03  0.00000000000E+00 0. -1.
         21   -1    0    0  503  504 -0.00000000000E+00 -0.00000000000E+00 -0.67980533491E+03  0.67980533491E+03  0.00000000000E+00 0.  1.
         -6    2    1    2    0  504 -0.11058761375E+03  0.16252623572E+03 -0.13508835702E+03  0.29549647434E+03  0.17442736177E+03 0.  0.
        -24    2    3    3    0    0 -0.11452249933E+03  0.15441127611E+03 -0.16292190336E+03  0.26586317894E+03  0.84743367177E+02 0.  0.
          6    2    1    2  502    0  0.11058761375E+03 -0.16252623572E+03 -0.42754398274E+03  0.50148185572E+03  0.17333723440E+03 0.  0.
         24    2    5    5    0    0  0.26070146540E+02 -0.99484123431E+02 -0.34013930020E+03  0.36444471216E+03  0.80922563768E+02 0.  0.
          2    1    6    6  501    0 -0.28782365389E+02 -0.43128460620E+02 -0.14874105486E+03  0.15751949109E+03  0.00000000000E+00 0. -1.
         -1    1    6    6    0  501  0.54852511929E+02 -0.56355662810E+02 -0.19139824534E+03  0.20692522107E+03  0.00000000000E+00 0.  1.
          5    1    5    5  502    0  0.84517467211E+02 -0.63042112286E+02 -0.87404682537E+02  0.13703714356E+03  0.47000000000E+01 0. -1.
         13    1    4    4    0    0 -0.27876501018E+02  0.40310237334E+02 -0.13834133264E+00  0.49010546633E+02  0.00000000000E+00 0. -1.
        -14    1    4    4    0    0 -0.86645998313E+02  0.11410103877E+03 -0.16278356203E+03  0.21685263231E+03  0.00000000000E+00 0.  1.
         -5    1    3    3    0  504  0.39348855802E+01  0.81149596074E+01  0.27833546344E+02  0.29633295396E+02  0.47000000000E+01 0.  1.
<mgrwt>
<rscale>  2 0.26262964E+03</rscale>
<asrwt>0</asrwt>
<pdfrwt beam="1">  1       21 0.18026615E-01 0.26281039E+03</pdfrwt>
<pdfrwt beam="2">  1       21 0.10458543E+00 0.26281039E+03</pdfrwt>
<totfact> 0.19866282E+04</totfact>
</mgrwt>
</event>
<event>
12    1  0.2791583E-001  0.2135488E+03  0.7546771E-02  0.1140882E+00
         21   -1    0    0  502  503  0.00000000000E+00  0.00000000000E+00  0.10938541514E+04  0.10938541514E+04  0.00000000000E+00 0. -1.
         21   -1    0    0  503  504 -0.00000000000E+00 -0.00000000000E+00 -0.41624812273E+02  0.41624812273E+02  0.00000000000E+00 0.  1.
         -6    2    1    2    0  504 -0.81665598438E+02 -0.77353640269E+02  0.39012972469E+03  0.43979297126E+03  0.16900828339E+03 0.  0.
        -24    2    3    3    0    0  0.34337690896E+01 -0.83847662347E+02  0.25241728992E+03  0.27771003148E+03  0.79788170091E+02 0.  0.
          6    2    1    2  502    0  0.81665598438E+02  0.77353640269E+02  0.66209961442E+03  0.69568599239E+03  0.18152202336E+03 0.  0.
         24    2    5    5    0    0  0.89133321525E+02  0.87936888059E+02  0.66517130243E+03  0.68156872321E+03  0.80033852794E+02 0.  0.
          4    1    6    6  501    0  0.53906014993E+02  0.49551139006E+02  0.55373080784E+03  0.55855078676E+03  0.00000000000E+00 0. -1.
         -3    1    6    6    0  501  0.35227306532E+02  0.38385749053E+02  0.11144049459E+03  0.12301793646E+03  0.00000000000E+00 0.  1.
          5    1    5    5  502    0 -0.74677230868E+01 -0.10583247791E+02 -0.30716880125E+01  0.14117269182E+02  0.47000000000E+01 0. -1.
         13    1    4    4    0    0 -0.12991785996E+02  0.13913148778E+01  0.11106339611E+03  0.11182933522E+03  0.00000000000E+00 0. -1.
        -14    1    4    4    0    0  0.16425555086E+02 -0.85238977225E+02  0.14135389380E+03  0.16588069626E+03  0.00000000000E+00 0.  1.
         -5    1    3    3    0  504 -0.85099367528E+02  0.64940220783E+01  0.13771243477E+03  0.16208293978E+03  0.47000000000E+01 0.  1.
<mgrwt>
<rscale>  2 0.21086621E+03</rscale>
<asrwt>0</asrwt>
<pdfrwt beam="1">  1       21 0.16828523E+00 0.21354882E+03</pdfrwt>
<pdfrwt beam="2">  1       21 0.64038181E-02 0.21354882E+03</pdfrwt>
<totfact> 0.38194588E+04</totfact>
</mgrwt>
</event>
<event>
12    1  0.2791583E-001  0.2025722E+03  0.7546771E-02  0.1147655E+00
         21   -1    0    0  502  503  0.00000000000E+00  0.00000000000E+00  0.12868561551E+04  0.12868561551E+04  0.00000000000E+00 0. -1.
         21   -1    0    0  503  504 -0.00000000000E+00 -0.00000000000E+00 -0.14235206919E+03  0.14235206919E+03  0.00000000000E+00 0. -1.
         -6    2    1    2    0  504 -0.92228143323E+02 -0.49176580652E+02 -0.57288171598E+02  0.21051706457E+03  0.17352559859E+03 0.  0.
        -24    2    3    3    0    0 -0.58596767897E+02  0.28429700525E+02 -0.69264805501E+02  0.12496395796E+03  0.81095921160E+02 0.  0.
          6    2    1    2  502    0  0.92228143323E+02  0.49176580652E+02  0.12017922575E+04  0.12186911597E+04  0.17314487012E+03 0.  0.
         24    2    5    5    0    0  0.31933639714E+02 -0.26672177542E+02  0.36806529126E+03  0.37933950186E+03  0.81824425711E+02 0.  0.
          2    1    6    6  501    0  0.39401730177E+02 -0.27302240080E+02  0.97270695298E+02  0.10844121365E+03  0.00000000000E+00 0. -1.
         -1    1    6    6    0  501 -0.74680904629E+01  0.63006253786E+00  0.27079459596E+03  0.27089828821E+03  0.00000000000E+00 0.  1.
          5    1    5    5  502    0  0.60294503609E+02  0.75848758195E+02  0.83372696627E+03  0.83935165787E+03  0.47000000000E+01 0. -1.
         13    1    4    4    0    0 -0.39712448004E+01 -0.26321342925E+02 -0.16040212280E+02  0.31078485945E+02  0.00000000000E+00 0. -1.
        -14    1    4    4    0    0 -0.54625523096E+02  0.54751043450E+02 -0.53224593221E+02  0.93885472018E+02  0.00000000000E+00 0.  1.
         -5    1    3    3    0  504 -0.33631375426E+02 -0.77606281177E+02  0.11976633903E+02  0.85553106611E+02  0.47000000000E+01 0.  1.
<mgrwt>
<rscale>  2 0.20249065E+03</rscale>
<asrwt>0</asrwt>
<pdfrwt beam="1">  1       21 0.19797786E+00 0.20257221E+03</pdfrwt>
<pdfrwt beam="2">  1       21 0.21900319E-01 0.20257221E+03</pdfrwt>
<totfact> 0.26673138E+03</totfact>
</mgrwt>
</event>
<event>
12    1  0.2791583E-001  0.2678754E+03  0.7546771E-02  0.1102577E+00
         21   -1    0    0  502  503  0.00000000000E+00  0.00000000000E+00  0.13926693147E+04  0.13926693147E+04  0.00000000000E+00 0. -1.
         21   -1    0    0  503  504 -0.00000000000E+00 -0.00000000000E+00 -0.19899222373E+03  0.19899222373E+03  0.00000000000E+00 0. -1.
         -6    2    1    2    0  504  0.20180843658E+03  0.32884548278E+02 -0.88639816677E+02  0.28166386825E+03  0.17224830620E+03 0.  0.
        -24    2    3    3    0    0  0.16059563255E+03  0.67899426511E+01 -0.12550640242E+03  0.22033965768E+03  0.83430493107E+02 0.  0.
          6    2    1    2  502    0 -0.20180843658E+03 -0.32884548278E+02  0.12823169077E+04  0.13099976702E+04  0.17305838795E+03 0.  0.
         24    2    5    5    0    0 -0.17898604539E+03  0.91870238794E+01  0.75188220047E+03  0.77738716774E+03  0.82967218436E+02 0.  0.
          2    1    6    6  501    0 -0.18556079966E+03  0.19163857528E+01  0.73283749570E+03  0.75596777577E+03  0.00000000000E+00 0. -1.
         -1    1    6    6    0  501  0.65747542715E+01  0.72706381266E+01  0.19044704767E+02  0.21419391966E+02  0.00000000000E+00 0.  1.
          5    1    5    5  502    0 -0.22822391188E+02 -0.42071572157E+02  0.53043470719E+03  0.53261050245E+03  0.47000000000E+01 0. -1.
         13    1    4    4    0    0  0.27184762121E+02  0.79505248809E+01 -0.70595776846E+02  0.76065667984E+02  0.00000000000E+00 0. -1.
        -14    1    4    4    0    0  0.13341087043E+03 -0.11605822297E+01 -0.54910625574E+02  0.14427398969E+03  0.00000000000E+00 0.  1.
         -5    1    3    3    0  504  0.41212804028E+02  0.26094605626E+02  0.36866585744E+02  0.61324210579E+02  0.47000000000E+01 0.  1.
<mgrwt>
<rscale>  2 0.26774467E+03</rscale>
<asrwt>0</asrwt>
<pdfrwt beam="1">  1       21 0.21425681E+00 0.26787543E+03</pdfrwt>
<pdfrwt beam="2">  1       21 0.30614189E-01 0.26787543E+03</pdfrwt>
<totfact> 0.10385226E+03</totfact>
</mgrwt>
</event>
<event>
12    1  0.2791583E-001  0.2433767E+03  0.7546771E-02  0.1117601E+00
         21   -1    0    0  502  503  0.00000000000E+00  0.00000000000E+00  0.15861327379E+03  0.15861327379E+03  0.00000000000E+00 0.  1.
         21   -1    0    0  503  504 -0.00000000000E+00 -0.00000000000E+00 -0.37812792300E+03  0.37812792300E+03  0.00000000000E+00 0.  1.
         -6    2    1    2    0  504  0.21599125401E+02 -0.16863966939E+03 -0.14068892534E+03  0.28091759628E+03  0.17382595283E+03 0.  0.
        -24    2    3    3    0    0  0.48249004706E+02 -0.60358388586E+02 -0.11439330905E+02  0.11014699138E+03  0.77655649438E+02 0.  0.
          6    2    1    2  502    0 -0.21599125401E+02  0.16863966939E+03 -0.78825723873E+02  0.25582360052E+03  0.17414465116E+03 0.  0.
         24    2    5    5    0    0  0.50410861479E+02  0.12908356263E+03 -0.74450516823E+02  0.17341391523E+03  0.72977294037E+02 0.  0.
          4    1    6    6  501    0  0.36023617986E+02  0.31904830796E+02 -0.55337562300E+02  0.73333928588E+02  0.00000000000E+00 0. -1.
         -3    1    6    6    0  501  0.14387243493E+02  0.97178731834E+02 -0.19112954523E+02  0.10007998664E+03  0.00000000000E+00 0.  1.
          5    1    5    5  502    0 -0.72009986879E+02  0.39556106756E+02 -0.43752070497E+01  0.82409685285E+02  0.47000000000E+01 0. -1.
         13    1    4    4    0    0  0.26375458185E+02  0.10403030507E+02  0.14276774604E+02  0.31744513404E+02  0.00000000000E+00 0. -1.
        -14    1    4    4    0    0  0.21873546521E+02 -0.70761419093E+02 -0.25716105509E+02  0.78402477971E+02  0.00000000000E+00 0.  1.
         -5    1    3    3    0  504 -0.26649879305E+02 -0.10828128080E+03 -0.12924959443E+03  0.17077060490E+03  0.47000000000E+01 0.  1.
<mgrwt>
<rscale>  2 0.24331970E+03</rscale>
<asrwt>0</asrwt>
<pdfrwt beam="1">  1       21 0.24402042E-01 0.24337670E+03</pdfrwt>
<pdfrwt beam="2">  1       21 0.58173526E-01 0.24337670E+03</pdfrwt>
<totfact> 0.42881659E+04</totfact>
</mgrwt>
</event>
<event>
12    1  0.2791583E-001  0.1919983E+03  0.7546771E-02  0.1156784E+00
         21   -1    0    0  502  503  0.00000000000E+00  0.00000000000E+00  0.20562585556E+03  0.20562585556E+03  0.00000000000E+00 0. -1.
         21   -1    0    0  503  504 -0.00000000000E+00 -0.00000000000E+00 -0.24938589049E+03  0.24938589049E+03  0.00000000000E+00 0. -1.
         -6    2    1    2    0  504  0.29131675125E+02  0.77757039981E+02 -0.14293629096E+03  0.23936193277E+03  0.17311423922E+03 0.  0.
        -24    2    3    3    0    0 -0.18499654042E+02 -0.80292230668E+01 -0.10403582996E+03  0.13370511892E+03  0.81528518246E+02 0.  0.
          6    2    1    2  502    0 -0.29131675125E+02 -0.77757039981E+02  0.99176256030E+02  0.21564981328E+03  0.17255173266E+03 0.  0.
         24    2    5    5    0    0  0.40575647070E+02 -0.89484326602E+02  0.71659494387E+02  0.13965045677E+03  0.68653762437E+02 0.  0.
          2    1    6    6  501    0 -0.33697138107E+01 -0.46795565490E+02  0.21092890699E+01  0.46964124830E+02  0.00000000000E+00 0. -1.
         -1    1    6    6    0  501  0.43945360880E+02 -0.42688761113E+02  0.69550205317E+02  0.92686331937E+02  0.00000000000E+00 0.  1.
          5    1    5    5  502    0 -0.69707322194E+02  0.11727286621E+02  0.27516761643E+02  0.75999356512E+02  0.47000000000E+01 0. -1.
         13    1    4    4    0    0  0.30377809295E+02  0.96560431902E+01 -0.35954108263E+02  0.48049436716E+02  0.00000000000E+00 0. -1.
        -14    1    4    4    0    0 -0.48877463337E+02 -0.17685266257E+02 -0.68081721698E+02  0.85655682206E+02  0.00000000000E+00 0.  1.
         -5    1    3    3    0  504  0.47631329166E+02  0.85786263048E+02 -0.38900461003E+02  0.10565681385E+03  0.47000000000E+01 0.  1.
<mgrwt>
<rscale>  2 0.19187143E+03</rscale>
<asrwt>0</asrwt>
<pdfrwt beam="1">  1       21 0.31634747E-01 0.19199831E+03</pdfrwt>
<pdfrwt beam="2">  1       21 0.38367060E-01 0.19199831E+03</pdfrwt>
<totfact> 0.62951949E+04</totfact>
</mgrwt>
</event>
<event>
12    1  0.2791583E-001  0.1857013E+03  0.7546771E-02  0.1163570E+00
         21   -1    0    0  502  503  0.00000000000E+00  0.00000000000E+00  0.13498619472E+03  0.13498619472E+03  0.00000000000E+00 0.  1.
         21   -1    0    0  503  504 -0.00000000000E+00 -0.00000000000E+00 -0.26050713580E+03  0.26050713580E+03  0.00000000000E+00 0.  1.
         -6    2    1    2    0  504  0.44356864668E+02 -0.30212567476E+02 -0.10572818939E+03  0.21369005818E+03  0.17777699586E+03 0.  0.
        -24    2    3    3    0    0  0.60476488821E+02 -0.78725176131E+02 -0.48402000129E+02  0.13673749190E+03  0.80618416119E+02 0.  0.
          6    2    1    2  502    0 -0.44356864668E+02  0.30212567476E+02 -0.19792751691E+02  0.18180327234E+03  0.17256982975E+03 0.  0.
         24    2    5    5    0    0 -0.83981323066E+02 -0.14799155225E+02  0.17462741111E+02  0.11104866382E+03  0.68956368733E+02 0.  0.
          4    1    6    6  501    0 -0.25198794227E+02  0.26197831273E+02  0.15047164461E+02  0.39341107664E+02  0.00000000000E+00 0. -1.
         -3    1    6    6    0  501 -0.58782528839E+02 -0.40996986499E+02  0.24155766495E+01  0.71707556152E+02  0.00000000000E+00 0.  1.
          5    1    5    5  502    0  0.39624458398E+02  0.45011722701E+02 -0.37255492801E+02  0.70754608526E+02  0.47000000000E+01 0. -1.
         11    1    4    4    0    0  0.29997322861E+02 -0.41891961735E+02 -0.67788913466E+02  0.85147593188E+02  0.00000000000E+00 0. -1.
        -12    1    4    4    0    0  0.30479165960E+02 -0.36833214395E+02  0.19386913337E+02  0.51589898711E+02  0.00000000000E+00 0.  1.
         -5    1    3    3    0  504 -0.16119624153E+02  0.48512608655E+02 -0.57326189265E+02  0.76952566279E+02  0.47000000000E+01 0.  1.
<mgrwt>
<rscale>  2 0.18444396E+03</rscale>
<asrwt>0</asrwt>
<pdfrwt beam="1">  1       21 0.20767107E-01 0.18570135E+03</pdfrwt>
<pdfrwt beam="2">  1       21 0.40078021E-01 0.18570135E+03</pdfrwt>
<totfact> 0.12938270E+05</totfact>
</mgrwt>
</event>
<event>
12    1  0.2791583E-001  0.1993324E+03  0.7546771E-02  0.1150813E+00
         21   -1    0    0  502  503  0.00000000000E+00  0.00000000000E+00  0.29806529044E+03  0.29806529044E+03  0.00000000000E+00 0.  1.
         21   -1    0    0  503  504 -0.00000000000E+00 -0.00000000000E+00 -0.13701844189E+03  0.13701844189E+03  0.00000000000E+00 0.  1.
         -6    2    1    2    0  504  0.32508988958E+02 -0.91037545168E+02  0.38176682646E+02  0.20295531917E+03  0.17432364581E+03 0.  0.
        -24    2    3    3    0    0  0.10387139119E+02 -0.89495381386E+02 -0.35353585323E+02  0.12601024255E+03  0.80693179905E+02 0.  0.
          6    2    1    2  502    0 -0.32508988958E+02  0.91037545168E+02  0.12287016589E+03  0.23212841316E+03  0.17158628597E+03 0.  0.
         24    2    5    5    0    0 -0.75285420014E+02  0.10626216686E+03  0.10607362124E+03  0.18348865501E+03  0.73871041849E+02 0.  0.
          4    1    6    6  501    0 -0.14711222720E+02  0.73339965204E+02  0.80674395763E+02  0.11001603838E+03  0.00000000000E+00 0. -1.
         -3    1    6    6    0  501 -0.60574197294E+02  0.32922201658E+02  0.25399225474E+02  0.73472616630E+02  0.00000000000E+00 0.  1.
          5    1    5    5  502    0  0.42776431055E+02 -0.15224621694E+02  0.16796544658E+02  0.48639758141E+02  0.47000000000E+01 0. -1.
         13    1    4    4    0    0 -0.96309352739E+01  0.11348658007E+02  0.47945700091E+01  0.15637610251E+02  0.00000000000E+00 0. -1.
        -14    1    4    4    0    0  0.20018074393E+02 -0.10084403939E+03 -0.40148155332E+02  0.11037263230E+03  0.00000000000E+00 0.  1.
         -5    1    3    3    0  504  0.22121849840E+02 -0.15421637816E+01  0.73530267969E+02  0.76945076626E+02  0.47000000000E+01 0.  1.
<mgrwt>
<rscale>  2 0.19873233E+03</rscale>
<asrwt>0</asrwt>
<pdfrwt beam="1">  1       21 0.45856198E-01 0.19933239E+03</pdfrwt>
<pdfrwt beam="2">  1       21 0.21079760E-01 0.19933239E+03</pdfrwt>
<totfact> 0.95097216E+04</totfact>
</mgrwt>
</event>
<event>
12    1  0.2791583E-001  0.2007953E+03  0.7546771E-02  0.1149210E+00
         21   -1    0    0  502  503  0.00000000000E+00  0.00000000000E+00  0.16932539749E+04  0.16932539749E+04  0.00000000000E+00 0. -1.
         21   -1    0    0  503  504 -0.00000000000E+00 -0.00000000000E+00 -0.25191770136E+02  0.25191770136E+02  0.00000000000E+00 0.  1.
         -6    2    1    2    0  504  0.12429041358E+02 -0.98844833861E+02  0.62853136168E+03  0.65982606633E+03  0.17433870179E+03 0.  0.
        -24    2    3    3    0    0  0.14156800659E+02 -0.11699951120E+03  0.31632699684E+03  0.34705421196E+03  0.80588811158E+02 0.  0.
          6    2    1    2  502    0 -0.12429041358E+02  0.98844833861E+02  0.10395308430E+04  0.10586196787E+04  0.17356977896E+03 0.  0.
         24    2    5    5    0    0  0.49323829127E+02  0.63861061917E+02  0.82156089103E+03  0.82933760066E+03  0.79545476639E+02 0.  0.
          4    1    6    6  501    0  0.23335148782E+02  0.41295269084E+02  0.72970762967E+03  0.73124760048E+03  0.00000000000E+00 0. -1.
         -3    1    6    6    0  501  0.25988680345E+02  0.22565792833E+02  0.91853261360E+02  0.98090000177E+02  0.00000000000E+00 0.  1.
          5    1    5    5  502    0 -0.61752870485E+02  0.34983771945E+02  0.21796995201E+03  0.22928207800E+03  0.47000000000E+01 0. -1.
         11    1    4    4    0    0 -0.14169636199E+02 -0.60749959687E+01  0.11015824348E+03  0.11123184244E+03  0.00000000000E+00 0. -1.
        -12    1    4    4    0    0  0.28326436857E+02 -0.11092451523E+03  0.20616875336E+03  0.23582236951E+03  0.00000000000E+00 0.  1.
         -5    1    3    3    0  504 -0.17277593011E+01  0.18154677334E+02  0.31220436485E+03  0.31277185438E+03  0.47000000000E+01 0.  1.
<mgrwt>
<rscale>  2 0.20062831E+03</rscale>
<asrwt>0</asrwt>
<pdfrwt beam="1">  1       21 0.26050052E+00 0.20079533E+03</pdfrwt>
<pdfrwt beam="2">  1       21 0.38756583E-02 0.20079533E+03</pdfrwt>
<totfact> 0.23677593E+04</totfact>
</mgrwt>
</event>
<event>
12    1  0.2791583E-001  0.2147790E+03  0.7546771E-02  0.1138020E+00
         21   -1    0    0  502  503  0.00000000000E+00  0.00000000000E+00  0.17775893303E+03  0.17775893303E+03  0.00000000000E+00 0.  1.
         21   -1    0    0  503  504 -0.00000000000E+00 -0.00000000000E+00 -0.25898690594E+03  0.25898690594E+03  0.00000000000E+00 0.  1.
         -6    2    1    2    0  504  0.27875202422E+02  0.12370748312E+03 -0.51432263399E+02  0.22085127447E+03  0.17334774134E+03 0.  0.
        -24    2    3    3    0    0  0.26017311692E+02 -0.59963573276E+01 -0.15066510690E+02  0.86051066927E+02  0.80404785716E+02 0.  0.
          6    2    1    2  502    0 -0.27875202422E+02 -0.12370748312E+03 -0.29795709508E+02  0.21589456450E+03  0.17216884267E+03 0.  0.
         24    2    5    5    0    0  0.38632555886E+01  0.60641984520E+00  0.12578214101E+02  0.80695024604E+02  0.79612706505E+02 0.  0.
          4    1    6    6  501    0 -0.16651120620E+02  0.19841663412E+02 -0.23484377743E+02  0.34963801607E+02  0.00000000000E+00 0. -1.
         -3    1    6    6    0  501  0.20514376208E+02 -0.19235243566E+02  0.36062591844E+02  0.45731222997E+02  0.00000000000E+00 0.  1.
          5    1    5    5  502    0 -0.31738458011E+02 -0.12431390296E+03 -0.42373923608E+02  0.13519953990E+03  0.47000000000E+01 0. -1.
         13    1    4    4    0    0  0.71143375704E+01 -0.74300126154E+00 -0.47559454108E+02  0.48094360636E+02  0.00000000000E+00 0. -1.
        -14    1    4    4    0    0  0.18902974122E+02 -0.52533560661E+01  0.32492943417E+02  0.37956706292E+02  0.00000000000E+00 0.  1.
         -5    1    3    3    0  504  0.18578907301E+01  0.12970384044E+03 -0.36365752708E+02  0.13480020754E+03  0.47000000000E+01 0.  1.
<mgrwt>
<rscale>  2 0.21454099E+03</rscale>
<asrwt>0</asrwt>
<pdfrwt beam="1">  1       21 0.27347528E-01 0.21477897E+03</pdfrwt>
<pdfrwt beam="2">  1       21 0.39844139E-01 0.21477897E+03</pdfrwt>
<totfact> 0.76686506E+04</totfact>
</mgrwt>
</event>
<event>
12    1  0.2791583E-001  0.1942122E+03  0.7546771E-02  0.1155186E+00
         21   -1    0    0  502  503  0.00000000000E+00  0.00000000000E+00  0.64235052591E+03  0.64235052591E+03  0.00000000000E+00 0.  1.
         21   -1    0    0  503  504 -0.00000000000E+00 -0.00000000000E+00 -0.59475286257E+02  0.59475286257E+02  0.00000000000E+00 0.  1.
         -6    2    1    2    0  504  0.83384900430E+02 -0.81841904164E+01  0.23605677006E+03  0.30433189575E+03  0.17284409590E+03 0.  0.
        -24    2    3    3    0    0  0.60619735808E+02  0.59823428545E+02  0.16633072450E+03  0.20419648550E+03  0.82320713096E+02 0.  0.
          6    2    1    2  502    0 -0.83384900430E+02  0.81841904164E+01  0.34681846959E+03  0.39749391641E+03  0.17520941797E+03 0.  0.
         24    2    5    5    0    0 -0.10747492908E+03  0.32296055666E+02  0.13997023779E+03  0.18780368649E+03  0.55539729920E+02 0.  0.
          4    1    6    6  501    0 -0.82378425138E+02  0.46562319114E+02  0.11943094522E+03  0.15237455551E+03  0.00000000000E+00 0. -1.
         -3    1    6    6    0  501 -0.25096503946E+02 -0.14266263448E+02  0.20539292568E+02  0.35429130984E+02  0.00000000000E+00 0.  1.
          5    1    5    5  502    0  0.24090028654E+02 -0.24111865250E+02  0.20684823180E+03  0.20969022992E+03  0.47000000000E+01 0. -1.
         11    1    4    4    0    0 -0.92142609005E+01  0.75101877789E+01  0.81973478912E+02  0.82830892603E+02  0.00000000000E+00 0. -1.
        -12    1    4    4    0    0  0.69833996708E+02  0.52313240766E+02  0.84357245591E+02  0.12136559290E+03  0.00000000000E+00 0.  1.
         -5    1    3    3    0  504  0.22765164622E+02 -0.68007618962E+02  0.69726045561E+02  0.10013541025E+03  0.47000000000E+01 0.  1.
<mgrwt>
<rscale>  2 0.19367716E+03</rscale>
<asrwt>0</asrwt>
<pdfrwt beam="1">  1       21 0.98823153E-01 0.19421216E+03</pdfrwt>
<pdfrwt beam="2">  1       21 0.91500445E-02 0.19421216E+03</pdfrwt>
<totfact> 0.80058966E+04</totfact>
</mgrwt>
</event>
<event>
12    1  0.2791583E-001  0.2127871E+03  0.7546771E-02  0.1139382E+00
         21   -1    0    0  502  503  0.00000000000E+00  0.00000000000E+00  0.89380605605E+02  0.89380605605E+02  0.00000000000E+00 0.  1.
         21   -1    0    0  503  504 -0.00000000000E+00 -0.00000000000E+00 -0.51953261713E+03  0.51953261713E+03  0.00000000000E+00 0.  1.
         -6    2    1    2    0  504  0.40379913233E+02  0.11670951740E+03 -0.26326922502E+03  0.33851004381E+03  0.17328218625E+03 0.  0.
        -24    2    3    3    0    0  0.36495340714E+02  0.66966987266E+02 -0.26596184908E+03  0.28832289971E+03  0.81104266564E+02 0.  0.
          6    2    1    2  502    0 -0.40379913233E+02 -0.11670951740E+03 -0.16688278650E+03  0.27040317892E+03  0.17325231859E+03 0.  0.
         24    2    5    5    0    0 -0.13921216337E+02 -0.14028482707E+03 -0.92457720387E+02  0.18783782097E+03  0.82831056723E+02 0.  0.
          2    1    6    6  501    0 -0.76226650820E+01 -0.11910630617E+03 -0.32141814261E+02  0.12360223872E+03  0.00000000000E+00 0. -1.
         -1    1    6    6    0  501 -0.62985512545E+01 -0.21178520898E+02 -0.60315906126E+02  0.64235582251E+02  0.00000000000E+00 0.  1.
          5    1    5    5  502    0 -0.26458696897E+02  0.23575309668E+02 -0.74425066118E+02  0.82565357954E+02  0.47000000000E+01 0. -1.
         11    1    4    4    0    0  0.55883807290E+02  0.71601971858E+02 -0.22843141478E+03  0.24582667380E+03  0.00000000000E+00 0. -1.
        -12    1    4    4    0    0 -0.19388466576E+02 -0.46349845925E+01 -0.37530434299E+02  0.42496225915E+02  0.00000000000E+00 0.  1.
         -5    1    3    3    0  504  0.38845725189E+01  0.49742530134E+02  0.26926240656E+01  0.50187144093E+02  0.47000000000E+01 0.  1.
<mgrwt>
<rscale>  2 0.21278105E+03</rscale>
<asrwt>0</asrwt>
<pdfrwt beam="1">  1       21 0.13750862E-01 0.21278714E+03</pdfrwt>
<pdfrwt beam="2">  1       21 0.79928096E-01 0.21278714E+03</pdfrwt>
<totfact> 0.62710941E+04</totfact>
</mgrwt>
</event>
<event>
12    1  0.2791583E-001  0.2228989E+03  0.7546771E-02  0.1131978E+00
         21   -1    0    0  502  503  0.00000000000E+00  0.00000000000E+00  0.16199055294E+03  0.16199055294E+03  0.00000000000E+00 0.  1.
         21   -1    0    0  503  504 -0.00000000000E+00 -0.00000000000E+00 -0.37880988129E+03  0.37880988129E+03  0.00000000000E+00 0. -1.
         -6    2    1    2    0  504  0.94967208591E+02  0.10301576586E+03 -0.22757166081E+03  0.31764231180E+03  0.17168796905E+03 0.  0.
        -24    2    3    3    0    0  0.97825555027E+02  0.45111247284E+02 -0.22174413703E+03  0.25918588829E+03  0.80012489851E+02 0.  0.
          6    2    1    2  502    0 -0.94967208591E+02 -0.10301576586E+03  0.10752332459E+02  0.22315812243E+03  0.17335776945E+03 0.  0.
         24    2    5    5    0    0 -0.57461767645E+02 -0.13780994505E+03  0.26680697196E+01  0.17115102378E+03  0.83618889303E+02 0.  0.
          4    1    6    6  501    0  0.86259808710E+01 -0.54577108381E+02 -0.26010172637E+02  0.61070429717E+02  0.00000000000E+00 0. -1.
         -3    1    6    6    0  501 -0.66087748516E+02 -0.83232836671E+02  0.28678242357E+02  0.11008059406E+03  0.00000000000E+00 0.  1.
          5    1    5    5  502    0 -0.37505440946E+02  0.34794179190E+02  0.80842627397E+01  0.52007098651E+02  0.47000000000E+01 0. -1.
         13    1    4    4    0    0  0.97463973126E+02  0.62957587877E+02 -0.18580292725E+03  0.21905618390E+03  0.00000000000E+00 0. -1.
        -14    1    4    4    0    0  0.36158190051E+00 -0.17846340593E+02 -0.35941209776E+02  0.40129704387E+02  0.00000000000E+00 0.  1.
         -5    1    3    3    0  504 -0.28583464359E+01  0.57904518577E+02 -0.58275237807E+01  0.58456423509E+02  0.47000000000E+01 0.  1.
<mgrwt>
<rscale>  2 0.22257418E+03</rscale>
<asrwt>0</asrwt>
<pdfrwt beam="1">  1       21 0.24921623E-01 0.22289893E+03</pdfrwt>
<pdfrwt beam="2">  1       21 0.58278443E-01 0.22289893E+03</pdfrwt>
<totfact> 0.41400093E+04</totfact>
</mgrwt>
</event>
<event>
12    1  0.2791583E-001  0.1782453E+03  0.7546771E-02  0.1169768E+00
         21   -1    0    0  502  503  0.00000000000E+00  0.00000000000E+00  0.20946524537E+03  0.20946524537E+03  0.00000000000E+00 0.  1.
         21   -1    0    0  503  504 -0.00000000000E+00 -0.00000000000E+00 -0.15418521765E+03  0.15418521765E+03  0.00000000000E+00 0.  1.
         -6    2    1    2    0  504 -0.41640962986E+02 -0.47027410449E+01  0.54529064357E+02  0.18540362937E+03  0.17217723820E+03 0.  0.
        -24    2    3    3    0    0 -0.45556428084E+02  0.57375248532E+02  0.10001115550E+02  0.10876267504E+03  0.79762083004E+02 0.  0.
          6    2    1    2  502    0  0.41640962986E+02  0.47027410449E+01  0.75096336762E+00  0.17824683365E+03  0.17324919679E+03 0.  0.
         24    2    5    5    0    0  0.38511012697E+02  0.66446481114E+02  0.20670981365E+02  0.11312400245E+03  0.80445742633E+02 0.  0.
          2    1    6    6  501    0 -0.73902747428E+01  0.96065280478E+01 -0.24425374192E+02  0.27267204593E+02  0.00000000000E+00 0. -1.
         -1    1    6    6    0  501  0.45901287439E+02  0.56839953066E+02  0.45096355557E+02  0.85856797854E+02  0.00000000000E+00 0.  1.
          5    1    5    5  502    0  0.31299502892E+01 -0.61743740069E+02 -0.19920017998E+02  0.65122831200E+02  0.47000000000E+01 0. -1.
         13    1    4    4    0    0 -0.18852541891E+02 -0.78528854495E+01 -0.23151828224E+02  0.30872209116E+02  0.00000000000E+00 0. -1.
        -14    1    4    4    0    0 -0.26703886193E+02  0.65228133981E+02  0.33152943774E+02  0.77890465921E+02  0.00000000000E+00 0.  1.
         -5    1    3    3    0  504  0.39154650982E+01 -0.62077989577E+02  0.44527948807E+02  0.76640954337E+02  0.47000000000E+01 0.  1.
<mgrwt>
<rscale>  2 0.17798425E+03</rscale>
<asrwt>0</asrwt>
<pdfrwt beam="1">  1       21 0.32225423E-01 0.17824525E+03</pdfrwt>
<pdfrwt beam="2">  1       21 0.23720803E-01 0.17824525E+03</pdfrwt>
<totfact> 0.15578097E+05</totfact>
</mgrwt>
</event>
<event>
12    1  0.2791583E-001  0.2916967E+03  0.7546771E-02  0.1090020E+00
         21   -1    0    0  502  503  0.00000000000E+00  0.00000000000E+00  0.85939493216E+02  0.85939493216E+02  0.00000000000E+00 0.  1.
         21   -1    0    0  503  504 -0.00000000000E+00 -0.00000000000E+00 -0.10915228563E+04  0.10915228563E+04  0.00000000000E+00 0. -1.
         -6    2    1    2    0  504 -0.79882206689E+02 -0.21386329555E+03 -0.69782815823E+03  0.75634061530E+03  0.18157178139E+03 0.  0.
        -24    2    3    3    0    0 -0.78960317607E+02 -0.14643919891E+03 -0.64375336733E+03  0.66977831578E+03  0.80656206211E+02 0.  0.
          6    2    1    2  502    0  0.79882206689E+02  0.21386329555E+03 -0.30775520487E+03  0.42112173423E+03  0.17467562162E+03 0.  0.
         24    2    5    5    0    0  0.38301291974E+02  0.42251081459E+02 -0.59017157030E+02  0.11604398851E+03  0.82042913121E+02 0.  0.
          4    1    6    6  501    0 -0.27107425008E+00  0.57981088887E+02 -0.38581370509E+02  0.69644829673E+02  0.00000000000E+00 0. -1.
         -3    1    6    6    0  501  0.38572366224E+02 -0.15730007428E+02 -0.20435786522E+02  0.46399158835E+02  0.00000000000E+00 0.  1.
          5    1    5    5  502    0  0.41580914716E+02  0.17161221409E+03 -0.24873804784E+03  0.30507774572E+03  0.47000000000E+01 0. -1.
         13    1    4    4    0    0 -0.94308487171E+02 -0.12566119095E+03 -0.51391001936E+03  0.53739029919E+03  0.00000000000E+00 0. -1.
        -14    1    4    4    0    0  0.15348169564E+02 -0.20778007960E+02 -0.12984334797E+03  0.13238801659E+03  0.00000000000E+00 0.  1.
         -5    1    3    3    0  504 -0.92188908225E+00 -0.67424096643E+02 -0.54074790902E+02  0.86562299523E+02  0.47000000000E+01 0.  1.
<mgrwt>
<rscale>  2 0.29063042E+03</rscale>
<asrwt>0</asrwt>
<pdfrwt beam="1">  1       21 0.13221461E-01 0.29169674E+03</pdfrwt>
<pdfrwt beam="2">  1       21 0.16792659E+00 0.29169674E+03</pdfrwt>
<totfact> 0.10206312E+04</totfact>
</mgrwt>
</event>
<event>
12    1  0.2791583E-001  0.2001091E+03  0.7546771E-02  0.1149887E+00
         21   -1    0    0  502  503  0.00000000000E+00  0.00000000000E+00  0.17778237160E+03  0.17778237160E+03  0.00000000000E+00 0.  1.
         21   -1    0    0  503  504 -0.00000000000E+00 -0.00000000000E+00 -0.27496948389E+03  0.27496948389E+03  0.00000000000E+00 0.  1.
         -6    2    1    2    0  504 -0.39602637578E+02 -0.89971391299E+02 -0.14620514967E+03  0.24782981118E+03  0.17429988344E+03 0.  0.
        -24    2    3    3    0    0 -0.44549144303E+02 -0.27010463688E+02 -0.99796446134E+01  0.97603233767E+02  0.81930498158E+02 0.  0.
          6    2    1    2  502    0  0.39602637578E+02  0.89971391299E+02  0.49018037373E+02  0.20492204431E+03  0.17299438170E+03 0.  0.
         24    2    5    5    0    0  0.45215071490E+02  0.38310048364E+02 -0.35797958568E+02  0.10534174035E+03  0.79393487938E+02 0.  0.
          2    1    6    6  501    0 -0.15344072133E+02  0.32724665391E+02 -0.24015932814E+02  0.43394807334E+02  0.00000000000E+00 0. -1.
         -1    1    6    6    0  501  0.60559143623E+02  0.55853829730E+01 -0.11782025754E+02  0.61946933017E+02  0.00000000000E+00 0.  1.
          5    1    5    5  502    0 -0.56124339121E+01  0.51661342935E+02  0.84815995941E+02  0.99580303955E+02  0.47000000000E+01 0. -1.
         11    1    4    4    0    0 -0.37283700532E+01  0.18637998674E+02 -0.27933944613E+02  0.33787290502E+02  0.00000000000E+00 0. -1.
        -12    1    4    4    0    0 -0.40820774249E+02 -0.45648462362E+02  0.17954299999E+02  0.63815943265E+02  0.00000000000E+00 0.  1.
         -5    1    3    3    0  504  0.49465067248E+01 -0.62960927611E+02 -0.13622550506E+03  0.15022657742E+03  0.47000000000E+01 0.  1.
<mgrwt>
<rscale>  2 0.19982451E+03</rscale>
<asrwt>0</asrwt>
<pdfrwt beam="1">  1       21 0.27351134E-01 0.20010914E+03</pdfrwt>
<pdfrwt beam="2">  1       21 0.42302997E-01 0.20010914E+03</pdfrwt>
<totfact> 0.68316156E+04</totfact>
</mgrwt>
</event>
<event>
12    1  0.2791583E-001  0.1796570E+03  0.7546771E-02  0.1168199E+00
         21   -1    0    0  502  503  0.00000000000E+00  0.00000000000E+00  0.10872096224E+03  0.10872096224E+03  0.00000000000E+00 0.  1.
         21   -1    0    0  503  504 -0.00000000000E+00 -0.00000000000E+00 -0.42407847470E+03  0.42407847470E+03  0.00000000000E+00 0.  1.
         -6    2    1    2    0  504  0.32458720586E+02 -0.38030694400E+02 -0.30374646125E+03  0.35276757543E+03  0.17228797780E+03 0.  0.
        -24    2    3    3    0    0 -0.45654965323E+02 -0.29717828677E+02 -0.13133122219E+03  0.16324196681E+03  0.80203021182E+02 0.  0.
          6    2    1    2  502    0 -0.32458720586E+02  0.38030694400E+02 -0.11611051206E+02  0.18003186151E+03  0.17255941699E+03 0.  0.
         24    2    5    5    0    0 -0.42556488435E+02 -0.34590586658E+02  0.21935077706E+02  0.99265233855E+02  0.79780170626E+02 0.  0.
          2    1    6    6  501    0  0.11264879757E+02 -0.40623471020E+02  0.46333214283E+01  0.42410276833E+02  0.00000000000E+00 0. -1.
         -1    1    6    6    0  501 -0.53821368191E+02  0.60328843619E+01  0.17301756278E+02  0.56854957022E+02  0.00000000000E+00 0.  1.
          5    1    5    5  502    0  0.10097767849E+02  0.72621281058E+02 -0.33546128912E+02  0.80766627656E+02  0.47000000000E+01 0. -1.
         13    1    4    4    0    0 -0.37623054751E+02  0.62559117817E+00 -0.12588005291E+03  0.13138368747E+03  0.00000000000E+00 0. -1.
        -14    1    4    4    0    0 -0.80319105721E+01 -0.30343419855E+02 -0.54511692793E+01  0.31858279340E+02  0.00000000000E+00 0.  1.
         -5    1    3    3    0  504  0.78113685908E+02 -0.83128657226E+01 -0.17241523906E+03  0.18952560862E+03  0.47000000000E+01 0.  1.
<mgrwt>
<rscale>  2 0.17959184E+03</rscale>
<asrwt>0</asrwt>
<pdfrwt beam="1">  1       21 0.16726302E-01 0.17965705E+03</pdfrwt>
<pdfrwt beam="2">  1       21 0.65242843E-01 0.17965705E+03</pdfrwt>
<totfact> 0.69878427E+04</totfact>
</mgrwt>
</event>
<event>
12    1  0.2791583E-001  0.2476291E+03  0.7546771E-02  0.1114817E+00
         21   -1    0    0  502  503  0.00000000000E+00  0.00000000000E+00  0.13509979508E+03  0.13509979508E+03  0.00000000000E+00 0. -1.
         21   -1    0    0  503  504 -0.00000000000E+00 -0.00000000000E+00 -0.45480476028E+03  0.45480476028E+03  0.00000000000E+00 0.  1.
         -6    2    1    2    0  504  0.17420750137E+03 -0.30373493602E+02 -0.14626236449E+03  0.28759844566E+03  0.17334758156E+03 0.  0.
        -24    2    3    3    0    0  0.12814050746E+03 -0.67916404316E+02 -0.47848386275E+02  0.17253742193E+03  0.80293625337E+02 0.  0.
          6    2    1    2  502    0 -0.17420750137E+03  0.30373493602E+02 -0.17344260071E+03  0.30230610971E+03  0.17330852713E+03 0.  0.
         24    2    5    5    0    0 -0.65497369464E+02  0.76791537326E+02 -0.98377925361E+02  0.16220142368E+03  0.80276024019E+02 0.  0.
          4    1    6    6  501    0 -0.56190522797E+02  0.93457372716E+02 -0.89842259728E+02  0.14129149656E+03  0.00000000000E+00 0. -1.
         -3    1    6    6    0  501 -0.93068466666E+01 -0.16665835390E+02 -0.85356656329E+01  0.20909927114E+02  0.00000000000E+00 0.  1.
          5    1    5    5  502    0 -0.10871013190E+03 -0.46418043724E+02 -0.75064675353E+02  0.14010468603E+03  0.47000000000E+01 0. -1.
         11    1    4    4    0    0  0.33565759194E+02  0.17320190152E+02 -0.44760380795E+01  0.38035300630E+02  0.00000000000E+00 0. -1.
        -12    1    4    4    0    0  0.94574748268E+02 -0.85236594468E+02 -0.43372348195E+02  0.13450212130E+03  0.00000000000E+00 0.  1.
         -5    1    3    3    0  504  0.46066993906E+02  0.37542910714E+02 -0.98413978216E+02  0.11506102373E+03  0.47000000000E+01 0.  1.
<mgrwt>
<rscale>  2 0.24762230E+03</rscale>
<asrwt>0</asrwt>
<pdfrwt beam="1">  1       21 0.20784584E-01 0.24762913E+03</pdfrwt>
<pdfrwt beam="2">  1       21 0.69969963E-01 0.24762913E+03</pdfrwt>
<totfact> 0.38799189E+04</totfact>
</mgrwt>
</event>
<event>
12    1  0.2791583E-001  0.1876986E+03  0.7546771E-02  0.1160865E+00
         21   -1    0    0  502  503  0.00000000000E+00  0.00000000000E+00  0.10633654866E+03  0.10633654866E+03  0.00000000000E+00 0.  1.
         21   -1    0    0  503  504 -0.00000000000E+00 -0.00000000000E+00 -0.42344510878E+03  0.42344510878E+03  0.00000000000E+00 0.  1.
         -6    2    1    2    0  504  0.11279376542E+02 -0.70082812365E+02 -0.28325635710E+03  0.33905478262E+03  0.17229380969E+03 0.  0.
        -24    2    3    3    0    0  0.59921305959E+00 -0.20931234335E+02 -0.43929083846E+02  0.94453929724E+02  0.80952484865E+02 0.  0.
          6    2    1    2  502    0 -0.11279376542E+02  0.70082812365E+02 -0.33852203022E+02  0.19072687482E+03  0.17375829248E+03 0.  0.
         24    2    5    5    0    0 -0.64892230364E+02  0.45122952879E+02  0.14742339751E+02  0.11404015975E+03  0.80874835501E+02 0.  0.
          2    1    6    6  501    0 -0.15771589056E+02  0.51773204288E+02  0.30376883530E+02  0.62064182558E+02  0.00000000000E+00 0. -1.
         -1    1    6    6    0  501 -0.49120641308E+02 -0.66502514093E+01 -0.15634543779E+02  0.51975977196E+02  0.00000000000E+00 0.  1.
          5    1    5    5  502    0  0.53612853822E+02  0.24959859486E+02 -0.48594542773E+02  0.76686715067E+02  0.47000000000E+01 0. -1.
         11    1    4    4    0    0  0.38443343089E+02 -0.19102416141E+02 -0.11145177157E+02  0.44350962832E+02  0.00000000000E+00 0. -1.
        -12    1    4    4    0    0 -0.37844130029E+02 -0.18288181935E+01 -0.32783906689E+02  0.50102966893E+02  0.00000000000E+00 0.  1.
         -5    1    3    3    0  504  0.10680163482E+02 -0.49151578031E+02 -0.23932727326E+03  0.24460085290E+03  0.47000000000E+01 0.  1.
<mgrwt>
<rscale>  2 0.18735897E+03</rscale>
<asrwt>0</asrwt>
<pdfrwt beam="1">  1       21 0.16359469E-01 0.18769861E+03</pdfrwt>
<pdfrwt beam="2">  1       21 0.65145402E-01 0.18769861E+03</pdfrwt>
<totfact> 0.72762864E+04</totfact>
</mgrwt>
</event>
<event>
12    1  0.2791583E-001  0.1752965E+03  0.7546771E-02  0.1172555E+00
         21   -1    0    0  502  503  0.00000000000E+00  0.00000000000E+00  0.10118215754E+04  0.10118215754E+04  0.00000000000E+00 0.  1.
         21   -1    0    0  503  504 -0.00000000000E+00 -0.00000000000E+00 -0.33688845917E+02  0.33688845917E+02  0.00000000000E+00 0.  1.
         -6    2    1    2    0  504  0.19748703809E+02 -0.15629505771E+02  0.65578696931E+03  0.67881175989E+03  0.17347784725E+03 0.  0.
        -24    2    3    3    0    0 -0.24552459998E+02 -0.18431601143E+01  0.60095490871E+03  0.60683050322E+03  0.80562005953E+02 0.  0.
          6    2    1    2  502    0 -0.19748703809E+02  0.15629505771E+02  0.32234576021E+03  0.36669866147E+03  0.17299371794E+03 0.  0.
         24    2    5    5    0    0 -0.29084821654E+02 -0.14279879893E+02  0.32363879968E+03  0.33498909827E+03  0.80160972287E+02 0.  0.
          4    1    6    6  501    0 -0.34510060464E+02 -0.24154669296E+02  0.32055071357E+03  0.32330659178E+03  0.00000000000E+00 0. -1.
         -3    1    6    6    0  501  0.54252388096E+01  0.98747894031E+01  0.30880861146E+01  0.11682506484E+02  0.00000000000E+00 0.  1.
          5    1    5    5  502    0  0.93361178454E+01  0.29909385664E+02 -0.12930394767E+01  0.31709563199E+02  0.47000000000E+01 0. -1.
         11    1    4    4    0    0 -0.42510453557E+02  0.16801423963E+02  0.20518536632E+03  0.21021527314E+03  0.00000000000E+00 0. -1.
        -12    1    4    4    0    0  0.17957993560E+02 -0.18644584077E+02  0.39576954240E+03  0.39661523009E+03  0.00000000000E+00 0.  1.
         -5    1    3    3    0  504  0.44301163807E+02 -0.13786345657E+02  0.54832060599E+02  0.71981256662E+02  0.47000000000E+01 0.  1.
<mgrwt>
<rscale>  2 0.17517658E+03</rscale>
<asrwt>0</asrwt>
<pdfrwt beam="1">  1       21 0.15566483E+00 0.17529648E+03</pdfrwt>
<pdfrwt beam="2">  1       21 0.51829001E-02 0.17529648E+03</pdfrwt>
<totfact> 0.69216684E+04</totfact>
</mgrwt>
</event>
<event>
12    1  0.2791583E-001  0.3555598E+03  0.7546771E-02  0.1060489E+00
         21   -1    0    0  502  503  0.00000000000E+00  0.00000000000E+00  0.36225045076E+03  0.36225045076E+03  0.00000000000E+00 0. -1.
         21   -1    0    0  503  504 -0.00000000000E+00 -0.00000000000E+00 -0.54020351397E+03  0.54020351397E+03  0.00000000000E+00 0. -1.
         -6    2    1    2    0  504  0.16461738769E+03 -0.26078257971E+03 -0.35844699282E+03  0.50488317174E+03  0.17696421174E+03 0.  0.
        -24    2    3    3    0    0  0.14541770417E+03 -0.23418361006E+03 -0.21819217068E+03  0.36076641989E+03  0.80971071767E+02 0.  0.
          6    2    1    2  502    0 -0.16461738769E+03  0.26078257971E+03  0.18049392960E+03  0.39757079299E+03  0.17429296774E+03 0.  0.
         24    2    5    5    0    0 -0.67846191625E+02  0.14186447274E+03  0.24392194304E+02  0.17871919415E+03  0.81344556482E+02 0.  0.
          4    1    6    6  501    0 -0.42154555559E+02  0.14215418758E+03  0.85171937838E+01  0.14851721176E+03  0.00000000000E+00 0. -1.
         -3    1    6    6    0  501 -0.25691636066E+02 -0.28971483369E+00  0.15875000520E+02  0.30201982385E+02  0.00000000000E+00 0.  1.
          5    1    5    5  502    0 -0.96771196068E+02  0.11891810697E+03  0.15610173530E+03  0.21885159885E+03  0.47000000000E+01 0. -1.
         11    1    4    4    0    0  0.13266198468E+03 -0.21767601865E+03 -0.22374195554E+03  0.33917917676E+03  0.00000000000E+00 0. -1.
        -12    1    4    4    0    0  0.12755719496E+02 -0.16507591411E+02  0.55497848610E+01  0.21587243133E+02  0.00000000000E+00 0.  1.
         -5    1    3    3    0  504  0.19199683521E+02 -0.26598969650E+02 -0.14025482213E+03  0.14411675185E+03  0.47000000000E+01 0.  1.
<mgrwt>
<rscale>  2 0.35522886E+03</rscale>
<asrwt>0</asrwt>
<pdfrwt beam="1">  1       21 0.55730839E-01 0.35555980E+03</pdfrwt>
<pdfrwt beam="2">  1       21 0.83108233E-01 0.35555980E+03</pdfrwt>
<totfact> 0.34650111E+03</totfact>
</mgrwt>
</event>
<event>
12    1  0.2791583E-001  0.1815784E+03  0.7546771E-02  0.1166456E+00
         21   -1    0    0  502  503  0.00000000000E+00  0.00000000000E+00  0.32430265270E+02  0.32430265270E+02  0.00000000000E+00 0.  1.
         21   -1    0    0  503  504 -0.00000000000E+00 -0.00000000000E+00 -0.12584761858E+04  0.12584761858E+04  0.00000000000E+00 0. -1.
         -6    2    1    2    0  504 -0.27873190411E+02 -0.46494989967E+02 -0.89731246546E+03  0.91535832884E+03  0.17254712594E+03 0.  0.
        -24    2    3    3    0    0 -0.62019269873E+02 -0.63512418737E+01 -0.32956621107E+03  0.34515189725E+03  0.81420001144E+02 0.  0.
          6    2    1    2  502    0  0.27873190411E+02  0.46494989967E+02 -0.32873345507E+03  0.37554812224E+03  0.17329745755E+03 0.  0.
         24    2    5    5    0    0  0.23751975153E+02  0.28019595915E+02 -0.34112023195E+03  0.35244299635E+03  0.80646134134E+02 0.  0.
          2    1    6    6  501    0  0.19557856858E+02 -0.17468794985E+02 -0.24065760097E+03  0.24208211307E+03  0.00000000000E+00 0. -1.
         -1    1    6    6    0  501  0.41941182953E+01  0.45488390900E+02 -0.10046263098E+03  0.11036088328E+03  0.00000000000E+00 0.  1.
          5    1    5    5  502    0  0.41212152578E+01  0.18475394052E+02  0.12386776880E+02  0.23105125882E+02  0.47000000000E+01 0. -1.
         13    1    4    4    0    0 -0.76763001287E+02 -0.14699250773E+02 -0.30780340286E+03  0.31757134813E+03  0.00000000000E+00 0. -1.
        -14    1    4    4    0    0  0.14743731414E+02  0.83480088994E+01 -0.21762808210E+02  0.27580549120E+02  0.00000000000E+00 0.  1.
         -5    1    3    3    0  504  0.34146079462E+02 -0.40143748093E+02 -0.56774625439E+03  0.57020643159E+03  0.47000000000E+01 0.  1.
<mgrwt>
<rscale>  2 0.18139912E+03</rscale>
<asrwt>0</asrwt>
<pdfrwt beam="1">  1       21 0.49892714E-02 0.18157838E+03</pdfrwt>
<pdfrwt beam="2">  1       21 0.19361173E+00 0.18157838E+03</pdfrwt>
<totfact> 0.40168692E+04</totfact>
</mgrwt>
</event>
<event>
12    1  0.2791583E-001  0.2016504E+03  0.7546771E-02  0.1151981E+00
         21   -1    0    0  502  503  0.00000000000E+00  0.00000000000E+00  0.38000488305E+02  0.38000488305E+02  0.00000000000E+00 0. -1.
         21   -1    0    0  503  504 -0.00000000000E+00 -0.00000000000E+00 -0.15285279028E+04  0.15285279028E+04  0.00000000000E+00 0. -1.
         -6    2    1    2    0  504 -0.58719889524E+02 -0.89238918790E+01 -0.12331688282E+04  0.12495472166E+04  0.19270502418E+03 0.  0.
        -24    2    3    3    0    0 -0.64037291469E+02 -0.33031704169E+02 -0.12117511194E+04  0.12165279854E+04  0.80048083818E+02 0.  0.
          6    2    1    2  502    0  0.58719889524E+02  0.89238918790E+01 -0.25735858627E+03  0.31698117450E+03  0.17525969813E+03 0.  0.
         24    2    5    5    0    0 -0.37641117164E+02  0.89498768444E+01 -0.11201972982E+03  0.14253657734E+03  0.79191552668E+02 0.  0.
          2    1    6    6  501    0 -0.21013025472E+02 -0.35172563009E+02 -0.50789224479E+02  0.65254898294E+02  0.00000000000E+00 0. -1.
         -1    1    6    6    0  501 -0.16628091691E+02  0.44122439854E+02 -0.61230505344E+02  0.77281679049E+02  0.00000000000E+00 0.  1.
          5    1    5    5  502    0  0.96361006687E+02 -0.25984965402E-01 -0.14533885645E+03  0.17444459716E+03  0.47000000000E+01 0. -1.
         13    1    4    4    0    0 -0.20768518948E+02  0.96687274594E+01 -0.79859471622E+03  0.79892323564E+03  0.00000000000E+00 0. -1.
        -14    1    4    4    0    0 -0.43268772520E+02 -0.42700431629E+02 -0.41315640319E+03  0.41760474977E+03  0.00000000000E+00 0.  1.
         -5    1    3    3    0  504  0.53174019449E+01  0.24107812290E+02 -0.21417708787E+02  0.33019231162E+02  0.47000000000E+01 0.  1.
<mgrwt>
<rscale>  2 0.19736575E+03</rscale>
<asrwt>0</asrwt>
<pdfrwt beam="1">  1       21 0.58462295E-02 0.20165041E+03</pdfrwt>
<pdfrwt beam="2">  1       21 0.23515812E+00 0.20165041E+03</pdfrwt>
<totfact> 0.16656628E+04</totfact>
</mgrwt>
</event>
<event>
12    1  0.2791583E-001  0.2049063E+03  0.7546771E-02  0.1146665E+00
         21   -1    0    0  502  503  0.00000000000E+00  0.00000000000E+00  0.93954940134E+03  0.93954940134E+03  0.00000000000E+00 0.  1.
         21   -1    0    0  503  504 -0.00000000000E+00 -0.00000000000E+00 -0.43859656074E+02  0.43859656074E+02  0.00000000000E+00 0.  1.
         -6    2    1    2    0  504  0.46938153692E+02 -0.88841951765E+02  0.48794766694E+03  0.52922537565E+03  0.17857908582E+03 0.  0.
        -24    2    3    3    0    0  0.88601212900E+02 -0.21950833553E+02  0.34200703301E+03  0.36330072158E+03  0.81771569913E+02 0.  0.
          6    2    1    2  502    0 -0.46938153692E+02  0.88841951765E+02  0.40774207833E+03  0.45418368177E+03  0.17301194086E+03 0.  0.
         24    2    5    5    0    0  0.73359864617E+01 -0.14153026218E+02  0.13328496439E+03  0.15601855106E+03  0.79515921009E+02 0.  0.
          4    1    6    6  501    0  0.12978001205E+02 -0.45476238962E+02  0.62226344097E+02  0.78157755374E+02  0.00000000000E+00 0. -1.
         -3    1    6    6    0  501 -0.56420147435E+01  0.31323212744E+02  0.71058620293E+02  0.77860795687E+02  0.00000000000E+00 0.  1.
          5    1    5    5  502    0 -0.54274140153E+02  0.10299497798E+03  0.27445711394E+03  0.29816513071E+03  0.47000000000E+01 0. -1.
         13    1    4    4    0    0  0.10358271121E+01  0.23085555832E+02  0.84704065049E+02  0.87799740670E+02  0.00000000000E+00 0. -1.
        -14    1    4    4    0    0  0.87565385788E+02 -0.45036389385E+02  0.25730296797E+03  0.27550098091E+03  0.00000000000E+00 0.  1.
         -5    1    3    3    0  504 -0.41663059208E+02 -0.66891118212E+02  0.14594063393E+03  0.16592465407E+03  0.47000000000E+01 0.  1.
<mgrwt>
<rscale>  2 0.20368711E+03</rscale>
<asrwt>0</asrwt>
<pdfrwt beam="1">  1       21 0.14454605E+00 0.20490625E+03</pdfrwt>
<pdfrwt beam="2">  1       21 0.67476401E-02 0.20490625E+03</pdfrwt>
<totfact> 0.52718691E+04</totfact>
</mgrwt>
</event>
<event>
12    1  0.2791583E-001  0.1802647E+03  0.7546771E-02  0.1169162E+00
         21   -1    0    0  502  503  0.00000000000E+00  0.00000000000E+00  0.60070185239E+02  0.60070185239E+02  0.00000000000E+00 0.  1.
         21   -1    0    0  503  504 -0.00000000000E+00 -0.00000000000E+00 -0.54634233199E+03  0.54634233199E+03  0.00000000000E+00 0.  1.
         -6    2    1    2    0  504 -0.18708442843E+02 -0.34320424879E+02 -0.31211874080E+03  0.36043509720E+03  0.17597571861E+03 0.  0.
        -24    2    3    3    0    0 -0.68235085471E+02 -0.10770064693E+02 -0.11631409500E+03  0.15704124992E+03  0.79755653708E+02 0.  0.
          6    2    1    2  502    0  0.18708442843E+02  0.34320424879E+02 -0.17415340595E+03  0.24597742003E+03  0.16925597467E+03 0.  0.
         24    2    5    5    0    0 -0.40921142387E+02 -0.92837247119E+01 -0.13379284636E+03  0.16166802514E+03  0.80469231232E+02 0.  0.
          4    1    6    6  501    0 -0.24114583678E+02  0.13669233485E+02 -0.13005401018E+03  0.13297521068E+03  0.00000000000E+00 0. -1.
         -3    1    6    6    0  501 -0.16806558709E+02 -0.22952958197E+02 -0.37388361801E+01  0.28692814460E+02  0.00000000000E+00 0.  1.
          5    1    5    5  502    0  0.59629585230E+02  0.43604149591E+02 -0.40360559589E+02  0.84309394890E+02  0.47000000000E+01 0. -1.
         11    1    4    4    0    0 -0.49409658950E+02 -0.34400720304E+02 -0.11112491815E+03  0.12638619936E+03  0.00000000000E+00 0. -1.
        -12    1    4    4    0    0 -0.18825426521E+02  0.23630655610E+02 -0.51891768440E+01  0.30655050556E+02  0.00000000000E+00 0.  1.
         -5    1    3    3    0  504  0.49526642628E+02 -0.23550360186E+02 -0.19580464580E+03  0.20339384728E+03  0.47000000000E+01 0.  1.
<mgrwt>
<rscale>  2 0.17860341E+03</rscale>
<asrwt>0</asrwt>
<pdfrwt beam="1">  1       21 0.92415674E-02 0.18026467E+03</pdfrwt>
<pdfrwt beam="2">  1       21 0.84052663E-01 0.18026467E+03</pdfrwt>
<totfact> 0.11516726E+05</totfact>
</mgrwt>
</event>
<event>
12    1  0.2791583E-001  0.2051581E+03  0.7546771E-02  0.1146665E+00
         21   -1    0    0  502  503  0.00000000000E+00  0.00000000000E+00  0.65841205547E+03  0.65841205547E+03  0.00000000000E+00 0. -1.
         21   -1    0    0  503  504 -0.00000000000E+00 -0.00000000000E+00 -0.78547585999E+02  0.78547585999E+02  0.00000000000E+00 0. -1.
         -6    2    1    2    0  504 -0.90130291123E+02  0.41204333347E+02  0.12476016802E+03  0.24011441780E+03  0.17963453913E+03 0.  0.
        -24    2    3    3    0    0 -0.20625606191E+02  0.88011920980E+02  0.68507129557E+02  0.13907805888E+03  0.80485811156E+02 0.  0.
          6    2    1    2  502    0  0.90130291123E+02 -0.41204333347E+02  0.45510430144E+03  0.49684522366E+03  0.17295659749E+03 0.  0.
         24    2    5    5    0    0  0.13149544589E+03 -0.17010819854E+02  0.34960166939E+03  0.38087411737E+03  0.72548919760E+02 0.  0.
          4    1    6    6  501    0  0.57082296706E+02 -0.76689882378E+01  0.66344393424E+02  0.87856590627E+02  0.00000000000E+00 0. -1.
         -3    1    6    6    0  501  0.74413149184E+02 -0.93418316165E+01  0.28325727597E+03  0.29301752674E+03  0.00000000000E+00 0.  1.
          5    1    5    5  502    0 -0.41365154767E+02 -0.24193513493E+02  0.10550263205E+03  0.11597110629E+03  0.47000000000E+01 0. -1.
         11    1    4    4    0    0 -0.27564120196E+02  0.65162631936E+02  0.46537956176E+01  0.70905621333E+02  0.00000000000E+00 0. -1.
        -12    1    4    4    0    0  0.69385140047E+01  0.22849289044E+02  0.63853333940E+02  0.68172437551E+02  0.00000000000E+00 0.  1.
         -5    1    3    3    0  504 -0.69504684932E+02 -0.46807587633E+02  0.56253038465E+02  0.10103635892E+03  0.47000000000E+01 0.  1.
<mgrwt>
<rscale>  2 0.20368707E+03</rscale>
<asrwt>0</asrwt>
<pdfrwt beam="1">  1       21 0.10129416E+00 0.20515807E+03</pdfrwt>
<pdfrwt beam="2">  1       21 0.12084244E-01 0.20515807E+03</pdfrwt>
<totfact> 0.45841132E+04</totfact>
</mgrwt>
</event>
<event>
12    1  0.2791583E-001  0.2510972E+03  0.7546771E-02  0.1112700E+00
         21   -1    0    0  502  503  0.00000000000E+00  0.00000000000E+00  0.73137892040E+03  0.73137892040E+03  0.00000000000E+00 0. -1.
         21   -1    0    0  503  504 -0.00000000000E+00 -0.00000000000E+00 -0.19539080624E+03  0.19539080624E+03  0.00000000000E+00 0. -1.
         -6    2    1    2    0  504 -0.15580321006E+03 -0.93285222279E+02 -0.78569259385E+02  0.26310253554E+03  0.17341580875E+03 0.  0.
        -24    2    3    3    0    0 -0.14707531032E+03 -0.12375023245E+03 -0.39233548522E+02  0.21237107363E+03  0.81344542831E+02 0.  0.
          6    2    1    2  502    0  0.15580321006E+03  0.93285222279E+02  0.61455737355E+03  0.66366719110E+03  0.17261692327E+03 0.  0.
         24    2    5    5    0    0  0.13141978897E+03  0.27750018353E+02  0.27266340190E+03  0.31466433720E+03  0.81406940245E+02 0.  0.
          2    1    6    6  501    0  0.13953470366E+03  0.30724182321E+02  0.27024461156E+03  0.30568948131E+03  0.00000000000E+00 0. -1.
         -1    1    6    6    0  501 -0.81149146844E+01 -0.29741639672E+01  0.24187903363E+01  0.89748558946E+01  0.00000000000E+00 0.  1.
          5    1    5    5  502    0  0.24383421086E+02  0.65535203926E+02  0.34189397165E+03  0.34900285390E+03  0.47000000000E+01 0. -1.
         11    1    4    4    0    0 -0.59127078426E+02 -0.78801752937E+02 -0.54250828361E+02  0.11246723988E+03  0.00000000000E+00 0. -1.
        -12    1    4    4    0    0 -0.87948231891E+02 -0.44948479511E+02  0.15017279839E+02  0.99903833744E+02  0.00000000000E+00 0.  1.
         -5    1    3    3    0  504 -0.87278997432E+01  0.30465010169E+02 -0.39335710864E+02  0.50731461911E+02  0.47000000000E+01 0.  1.
<mgrwt>
<rscale>  2 0.25095934E+03</rscale>
<asrwt>0</asrwt>
<pdfrwt beam="1">  1       21 0.11251983E+00 0.25109722E+03</pdfrwt>
<pdfrwt beam="2">  1       21 0.30060124E-01 0.25109722E+03</pdfrwt>
<totfact> 0.63009872E+03</totfact>
</mgrwt>
</event>
<event>
12    1  0.2791583E-001  0.2315987E+03  0.7546771E-02  0.1125523E+00
         21   -1    0    0  502  503  0.00000000000E+00  0.00000000000E+00  0.20766295169E+03  0.20766295169E+03  0.00000000000E+00 0. -1.
         21   -1    0    0  503  504 -0.00000000000E+00 -0.00000000000E+00 -0.37142368685E+03  0.37142368685E+03  0.00000000000E+00 0. -1.
         -6    2    1    2    0  504 -0.18906011651E+01  0.15451870888E+03 -0.24168968240E+03  0.33472852858E+03  0.17248095402E+03 0.  0.
        -24    2    3    3    0    0 -0.60508800188E+01  0.12813093399E+03 -0.81681343170E+02  0.17243748999E+03  0.81293891146E+02 0.  0.
          6    2    1    2  502    0  0.18906011651E+01 -0.15451870888E+03  0.77928947245E+02  0.24435810995E+03  0.17250611385E+03 0.  0.
         24    2    5    5    0    0  0.92771210886E+01 -0.15578586842E+03  0.11242521942E+03  0.20874562389E+03  0.81117222319E+02 0.  0.
          2    1    6    6  501    0  0.21617283432E+02 -0.13997197199E+03  0.12161609743E+03  0.18668137304E+03  0.00000000000E+00 0. -1.
         -1    1    6    6    0  501 -0.12340162344E+02 -0.15813896432E+02 -0.91908780115E+01  0.22064250852E+02  0.00000000000E+00 0.  1.
          5    1    5    5  502    0 -0.73865199235E+01  0.12671595373E+01 -0.34496272174E+02  0.35612486065E+02  0.47000000000E+01 0. -1.
         11    1    4    4    0    0  0.13051200680E+02  0.46647932538E+02 -0.73932186290E+02  0.88387395136E+02  0.00000000000E+00 0. -1.
        -12    1    4    4    0    0 -0.19102080698E+02  0.81483001451E+02 -0.77491568801E+01  0.84050094854E+02  0.00000000000E+00 0.  1.
         -5    1    3    3    0  504  0.41602788536E+01  0.26387774892E+02 -0.16000833923E+03  0.16229103859E+03  0.47000000000E+01 0.  1.
<mgrwt>
<rscale>  2 0.23159403E+03</rscale>
<asrwt>0</asrwt>
<pdfrwt beam="1">  1       21 0.31948147E-01 0.23159872E+03</pdfrwt>
<pdfrwt beam="2">  1       21 0.57142105E-01 0.23159872E+03</pdfrwt>
<totfact> 0.26540373E+04</totfact>
</mgrwt>
</event>
<event>
12    1  0.2791583E-001  0.2264110E+03  0.7546771E-02  0.1129200E+00
         21   -1    0    0  502  503  0.00000000000E+00  0.00000000000E+00  0.86079391765E+02  0.86079391765E+02  0.00000000000E+00 0.  1.
         21   -1    0    0  503  504 -0.00000000000E+00 -0.00000000000E+00 -0.74006889840E+03  0.74006889840E+03  0.00000000000E+00 0.  1.
         -6    2    1    2    0  504  0.10041806614E+03 -0.10583005038E+03 -0.50960550305E+03  0.55761769526E+03  0.17307783730E+03 0.  0.
        -24    2    3    3    0    0  0.33879448313E+02 -0.10411686635E+03 -0.20606632870E+03  0.24683088244E+03  0.80461256669E+02 0.  0.
          6    2    1    2  502    0 -0.10041806614E+03  0.10583005038E+03 -0.14438400358E+03  0.26853059490E+03  0.17314200049E+03 0.  0.
         24    2    5    5    0    0 -0.12752604599E+03  0.12046763281E+03 -0.10980589970E+03  0.22198130211E+03  0.80268424165E+02 0.  0.
          2    1    6    6  501    0 -0.75411889021E+02  0.52615244006E+02 -0.13132118476E+02  0.92885787090E+02  0.00000000000E+00 0. -1.
         -1    1    6    6    0  501 -0.52114156966E+02  0.67852388806E+02 -0.96673781222E+02  0.12909551502E+03  0.00000000000E+00 0.  1.
          5    1    5    5  502    0  0.27107979843E+02 -0.14637582434E+02 -0.34578103887E+02  0.46549292788E+02  0.47000000000E+01 0. -1.
         11    1    4    4    0    0  0.42430644588E+02 -0.11403776119E+03 -0.17526745575E+03  0.21336272314E+03  0.00000000000E+00 0. -1.
        -12    1    4    4    0    0 -0.85511962741E+01  0.99208948440E+01 -0.30798872946E+02  0.33468159301E+02  0.00000000000E+00 0.  1.
         -5    1    3    3    0  504  0.66538617831E+02 -0.17131840288E+01 -0.30353917435E+03  0.31078681283E+03  0.47000000000E+01 0.  1.
<mgrwt>
<rscale>  2 0.22639873E+03</rscale>
<asrwt>0</asrwt>
<pdfrwt beam="1">  1       21 0.13242984E-01 0.22641100E+03</pdfrwt>
<pdfrwt beam="2">  1       21 0.11385675E+00 0.22641100E+03</pdfrwt>
<totfact> 0.28975324E+04</totfact>
</mgrwt>
</event>
<event>
12    1  0.2791583E-001  0.1747450E+03  0.7546771E-02  0.1173009E+00
         21   -1    0    0  502  503  0.00000000000E+00  0.00000000000E+00  0.24441577963E+03  0.24441577963E+03  0.00000000000E+00 0.  1.
         21   -1    0    0  503  504 -0.00000000000E+00 -0.00000000000E+00 -0.63545875270E+03  0.63545875270E+03  0.00000000000E+00 0.  1.
         -6    2    1    2    0  504  0.10814083308E+02  0.15102749010E+02 -0.58987971497E+03  0.61521857434E+03  0.17375493849E+03 0.  0.
        -24    2    3    3    0    0 -0.31925219024E+02  0.43454297164E+02 -0.51735559943E+03  0.52626748901E+03  0.79957227134E+02 0.  0.
          6    2    1    2  502    0 -0.10814083308E+02 -0.15102749010E+02  0.19883674190E+03  0.26465595800E+03  0.17367120876E+03 0.  0.
         24    2    5    5    0    0  0.39547740859E+02 -0.29437153635E+02  0.49341773999E+02  0.10618632711E+03  0.80064696226E+02 0.  0.
          2    1    6    6  501    0 -0.11223791473E+02 -0.39299514578E+02  0.31045655207E+02  0.51325023607E+02  0.00000000000E+00 0. -1.
         -1    1    6    6    0  501  0.50771532332E+02  0.98623609428E+01  0.18296118792E+02  0.54861303499E+02  0.00000000000E+00 0.  1.
          5    1    5    5  502    0 -0.50361824167E+02  0.14334404625E+02  0.14949496790E+03  0.15846963090E+03  0.47000000000E+01 0. -1.
         11    1    4    4    0    0 -0.51719933751E+02  0.31629277678E+02 -0.46657462738E+03  0.47049680728E+03  0.00000000000E+00 0. -1.
        -12    1    4    4    0    0  0.19794714727E+02  0.11825019486E+02 -0.50780972058E+02  0.55770681725E+02  0.00000000000E+00 0.  1.
         -5    1    3    3    0  504  0.42739302332E+02 -0.28351548154E+02 -0.72524115535E+02  0.88951085326E+02  0.47000000000E+01 0.  1.
<mgrwt>
<rscale>  2 0.17472419E+03</rscale>
<asrwt>0</asrwt>
<pdfrwt beam="1">  1       21 0.37602428E-01 0.17474500E+03</pdfrwt>
<pdfrwt beam="2">  1       21 0.97762885E-01 0.17474500E+03</pdfrwt>
<totfact> 0.59912058E+03</totfact>
</mgrwt>
</event>
<event>
12    1  0.2791583E-001  0.3166086E+03  0.7546771E-02  0.1077270E+00
         21   -1    0    0  502  503  0.00000000000E+00  0.00000000000E+00  0.41940943375E+03  0.41940943375E+03  0.00000000000E+00 0. -1.
         21   -1    0    0  503  504 -0.00000000000E+00 -0.00000000000E+00 -0.28972744831E+03  0.28972744831E+03  0.00000000000E+00 0.  1.
         -6    2    1    2    0  504 -0.11654333105E+03  0.23743290886E+03  0.21369846525E+03  0.38197911582E+03  0.17402378187E+03 0.  0.
        -24    2    3    3    0    0 -0.11094302143E+03  0.83924308385E+02  0.11397192944E+03  0.19877506065E+03  0.84677508787E+02 0.  0.
          6    2    1    2  502    0  0.11654333105E+03 -0.23743290886E+03 -0.84016479807E+02  0.32715776624E+03  0.17325328543E+03 0.  0.
         24    2    5    5    0    0  0.25859694818E+02 -0.19748748779E+03 -0.41433343369E+02  0.21920142297E+03  0.81624201301E+02 0.  0.
          4    1    6    6  501    0 -0.27403011104E+02 -0.87840120378E+02 -0.57873450715E+01  0.92197099350E+02  0.00000000000E+00 0. -1.
         -3    1    6    6    0  501  0.53262705922E+02 -0.10964736741E+03 -0.35645998298E+02  0.12700432362E+03  0.00000000000E+00 0.  1.
          5    1    5    5  502    0  0.90683636228E+02 -0.39945421068E+02 -0.42583136438E+02  0.10795634327E+03  0.47000000000E+01 0. -1.
         11    1    4    4    0    0 -0.12469516008E+02  0.38735553712E+02  0.71761224351E+02  0.82496092460E+02  0.00000000000E+00 0. -1.
        -12    1    4    4    0    0 -0.98473505426E+02  0.45188754673E+02  0.42210705090E+02  0.11627896819E+03  0.00000000000E+00 0.  1.
         -5    1    3    3    0  504 -0.56003096118E+01  0.15350860047E+03  0.99726535804E+02  0.18320405517E+03  0.47000000000E+01 0.  1.
<mgrwt>
<rscale>  2 0.31650284E+03</rscale>
<asrwt>0</asrwt>
<pdfrwt beam="1">  1       21 0.64524528E-01 0.31660861E+03</pdfrwt>
<pdfrwt beam="2">  1       21 0.44573453E-01 0.31660861E+03</pdfrwt>
<totfact> 0.10001523E+04</totfact>
</mgrwt>
</event>
<event>
12    1  0.2791583E-001  0.2001982E+03  0.7546771E-02  0.1149604E+00
         21   -1    0    0  502  503  0.00000000000E+00  0.00000000000E+00  0.19754961172E+04  0.19754961172E+04  0.00000000000E+00 0. -1.
         21   -1    0    0  503  504 -0.00000000000E+00 -0.00000000000E+00 -0.27814508341E+02  0.27814508341E+02  0.00000000000E+00 0. -1.
         -6    2    1    2    0  504 -0.88836770209E+02 -0.47967854135E+02  0.45199601977E+03  0.49428620751E+03  0.17270079987E+03 0.  0.
        -24    2    3    3    0    0 -0.97584014099E+02 -0.84620848181E+02  0.28652406425E+03  0.32451278701E+03  0.80803352522E+02 0.  0.
          6    2    1    2  502    0  0.88836770209E+02  0.47967854135E+02  0.14956855891E+04  0.15090244180E+04  0.17287691004E+03 0.  0.
         24    2    5    5    0    0  0.17448955866E+02  0.45015813322E+02  0.12375592896E+04  0.12411509197E+04  0.81066151150E+02 0.  0.
          4    1    6    6  501    0  0.43884361869E+02  0.33627003961E+02  0.10440211731E+04  0.10454840135E+04  0.00000000000E+00 0. -1.
         -3    1    6    6    0  501 -0.26435406003E+02  0.11388809361E+02  0.19353811642E+03  0.19566690619E+03  0.00000000000E+00 0.  1.
          5    1    5    5  502    0  0.71387814343E+02  0.29520408127E+01  0.25812629953E+03  0.26787349830E+03  0.47000000000E+01 0. -1.
         13    1    4    4    0    0 -0.94935053519E+02 -0.34687558999E+02  0.17111163402E+03  0.19873369728E+03  0.00000000000E+00 0. -1.
        -14    1    4    4    0    0 -0.26489605798E+01 -0.49933289183E+02  0.11541243023E+03  0.12577908973E+03  0.00000000000E+00 0.  1.
         -5    1    3    3    0  504  0.87472438892E+01  0.36652994046E+02  0.16547195551E+03  0.16977342050E+03  0.47000000000E+01 0.  1.
<mgrwt>
<rscale>  2 0.20016016E+03</rscale>
<asrwt>0</asrwt>
<pdfrwt beam="1">  1       21 0.30392237E+00 0.20019818E+03</pdfrwt>
<pdfrwt beam="2">  1       21 0.42791567E-02 0.20019818E+03</pdfrwt>
<totfact> 0.11248316E+04</totfact>
</mgrwt>
</event>
<event>
12    1  0.2791583E-001  0.1965406E+03  0.7546771E-02  0.1152699E+00
         21   -1    0    0  502  503  0.00000000000E+00  0.00000000000E+00  0.51176339009E+02  0.51176339009E+02  0.00000000000E+00 0. -1.
         21   -1    0    0  503  504 -0.00000000000E+00 -0.00000000000E+00 -0.14124113659E+04  0.14124113659E+04  0.00000000000E+00 0. -1.
         -6    2    1    2    0  504 -0.63498567069E+02  0.69179519808E+02 -0.11800411845E+04  0.11962965288E+04  0.17265663568E+03 0.  0.
        -24    2    3    3    0    0  0.23452081666E+02  0.70495014138E+02 -0.67633020840E+03  0.68511262526E+03  0.80232233876E+02 0.  0.
          6    2    1    2  502    0  0.63498567069E+02 -0.69179519808E+02 -0.18119384237E+03  0.26729117604E+03  0.17261370251E+03 0.  0.
         24    2    5    5    0    0  0.78269979445E+02 -0.26585318522E+02 -0.18867776892E+03  0.22135034710E+03  0.81016707114E+02 0.  0.
          4    1    6    6  501    0  0.90363851138E+02 -0.87307519689E+01 -0.12777852903E+03  0.15674566694E+03  0.00000000000E+00 0. -1.
         -3    1    6    6    0  501 -0.12093871693E+02 -0.17854566553E+02 -0.60899239888E+02  0.64604680157E+02  0.00000000000E+00 0.  1.
          5    1    5    5  502    0 -0.14771412376E+02 -0.42594201287E+02  0.74839265522E+01  0.45940828938E+02  0.47000000000E+01 0. -1.
         13    1    4    4    0    0 -0.79707012982E+01  0.38747578129E+02 -0.54420508576E+03  0.54564098293E+03  0.00000000000E+00 0. -1.
        -14    1    4    4    0    0  0.31422782965E+02  0.31747436009E+02 -0.13212512264E+03  0.13947164233E+03  0.00000000000E+00 0.  1.
         -5    1    3    3    0  504 -0.86950648735E+02 -0.13154943296E+01 -0.50371097610E+03  0.51118390359E+03  0.47000000000E+01 0.  1.
<mgrwt>
<rscale>  2 0.19653112E+03</rscale>
<asrwt>0</asrwt>
<pdfrwt beam="1">  1       21 0.78732829E-02 0.19654055E+03</pdfrwt>
<pdfrwt beam="2">  1       21 0.21729406E+00 0.19654055E+03</pdfrwt>
<totfact> 0.12854698E+04</totfact>
</mgrwt>
</event>
<event>
12    1  0.2791583E-001  0.1985160E+03  0.7546771E-02  0.1151596E+00
         21   -1    0    0  502  503  0.00000000000E+00  0.00000000000E+00  0.38735256282E+03  0.38735256282E+03  0.00000000000E+00 0. -1.
         21   -1    0    0  503  504 -0.00000000000E+00 -0.00000000000E+00 -0.11473809177E+03  0.11473809177E+03  0.00000000000E+00 0.  1.
         -6    2    1    2    0  504  0.84586293278E+02 -0.35716331902E+02  0.46451345801E+02  0.20116149367E+03  0.17285173310E+03 0.  0.
        -24    2    3    3    0    0  0.11412398504E+03 -0.37172086744E+02  0.79402199575E-01  0.14596147909E+03  0.83058407635E+02 0.  0.
          6    2    1    2  502    0 -0.84586293278E+02  0.35716331902E+02  0.22616312525E+03  0.30092916092E+03  0.17600597516E+03 0.  0.
         24    2    5    5    0    0 -0.19889929549E+02 -0.29508059263E+02  0.17448715768E+03  0.19541927367E+03  0.80477260564E+02 0.  0.
          2    1    6    6  501    0 -0.32693059803E+02 -0.28714468674E+02  0.17706669755E+03  0.18233478070E+03  0.00000000000E+00 0. -1.
         -1    1    6    6    0  501  0.12803130254E+02 -0.79359058955E+00 -0.25795398735E+01  0.13084492971E+02  0.00000000000E+00 0.  1.
          5    1    5    5  502    0 -0.64696363730E+02  0.65224391165E+02  0.51675967568E+02  0.10550988725E+03  0.47000000000E+01 0. -1.
         11    1    4    4    0    0  0.53773775586E+02  0.21560319789E+01  0.36713824032E+02  0.65147312222E+02  0.00000000000E+00 0. -1.
        -12    1    4    4    0    0  0.60350209451E+02 -0.39328118723E+02 -0.36634421833E+02  0.80814166865E+02  0.00000000000E+00 0.  1.
         -5    1    3    3    0  504 -0.29537691759E+02  0.14557548424E+01  0.46371943601E+02  0.55200014583E+02  0.47000000000E+01 0.  1.
<mgrwt>
<rscale>  2 0.19781450E+03</rscale>
<asrwt>0</asrwt>
<pdfrwt beam="1">  1       21 0.59592701E-01 0.19851600E+03</pdfrwt>
<pdfrwt beam="2">  1       21 0.17652014E-01 0.19851600E+03</pdfrwt>
<totfact> 0.76335013E+04</totfact>
</mgrwt>
</event>
<event>
12    1  0.2791583E-001  0.1988543E+03  0.7546771E-02  0.1150824E+00
         21   -1    0    0  502  503  0.00000000000E+00  0.00000000000E+00  0.10990715524E+03  0.10990715524E+03  0.00000000000E+00 0. -1.
         21   -1    0    0  503  504 -0.00000000000E+00 -0.00000000000E+00 -0.43037943122E+03  0.43037943122E+03  0.00000000000E+00 0. -1.
         -6    2    1    2    0  504 -0.91308404553E+01 -0.96259287140E+02 -0.49892003067E+02  0.20449391333E+03  0.17314538981E+03 0.  0.
        -24    2    3    3    0    0  0.39861269651E+01 -0.64114793545E+02  0.34871136091E+02  0.11277585043E+03  0.85882479867E+02 0.  0.
          6    2    1    2  502    0  0.91308404553E+01  0.96259287140E+02 -0.27058027291E+03  0.33579267314E+03  0.17376366892E+03 0.  0.
         24    2    5    5    0    0 -0.59425605133E+02  0.68649062156E+02 -0.19485438926E+03  0.22987378809E+03  0.81422534687E+02 0.  0.
          2    1    6    6  501    0 -0.34790653730E+02 -0.52948833634E+01 -0.25541601354E+02  0.43483316070E+02  0.00000000000E+00 0. -1.
         -1    1    6    6    0  501 -0.24634951404E+02  0.73943945519E+02 -0.16931278791E+03  0.18639047202E+03  0.00000000000E+00 0.  1.
          5    1    5    5  502    0  0.68556445589E+02  0.27610224984E+02 -0.75725883650E+02  0.10591888505E+03  0.47000000000E+01 0. -1.
         11    1    4    4    0    0 -0.32642871248E+02  0.59241446971E+00  0.14185242625E+02  0.35596756966E+02  0.00000000000E+00 0. -1.
        -12    1    4    4    0    0  0.36628998213E+02 -0.64707208015E+02  0.20685893466E+02  0.77179093462E+02  0.00000000000E+00 0.  1.
         -5    1    3    3    0  504 -0.13116967420E+02 -0.32144493595E+02 -0.84763139158E+02  0.91718062903E+02  0.47000000000E+01 0.  1.
<mgrwt>
<rscale>  2 0.19871916E+03</rscale>
<asrwt>0</asrwt>
<pdfrwt beam="1">  1       21 0.16908793E-01 0.19885431E+03</pdfrwt>
<pdfrwt beam="2">  1       21 0.66212220E-01 0.19885431E+03</pdfrwt>
<totfact> 0.65770825E+04</totfact>
</mgrwt>
</event>
<event>
12    1  0.2791583E-001  0.2433023E+03  0.7546771E-02  0.1118126E+00
         21   -1    0    0  502  503  0.00000000000E+00  0.00000000000E+00  0.20705711946E+03  0.20705711946E+03  0.00000000000E+00 0.  1.
         21   -1    0    0  503  504 -0.00000000000E+00 -0.00000000000E+00 -0.28436803406E+03  0.28436803406E+03  0.00000000000E+00 0.  1.
         -6    2    1    2    0  504 -0.10243608095E+03  0.13239924425E+03 -0.59678792769E+02  0.24748479116E+03  0.17223371617E+03 0.  0.
        -24    2    3    3    0    0 -0.31772489874E+02  0.92242681465E+02  0.27021978389E+02  0.12855201032E+03  0.79228963412E+02 0.  0.
          6    2    1    2  502    0  0.10243608095E+03 -0.13239924425E+03 -0.17632121834E+02  0.24394036236E+03  0.17655961630E+03 0.  0.
         24    2    5    5    0    0  0.10397733238E+03 -0.90804999218E+02 -0.72217280591E+02  0.17513566606E+03  0.80002077344E+02 0.  0.
          4    1    6    6  501    0  0.51057308408E+02 -0.27355758932E+02  0.97660694266E+01  0.58741487899E+02  0.00000000000E+00 0. -1.
         -3    1    6    6    0  501  0.52920023971E+02 -0.63449240286E+02 -0.81983350018E+02  0.11639417816E+03  0.00000000000E+00 0.  1.
          5    1    5    5  502    0 -0.15412514257E+01 -0.41594245034E+02  0.54585158757E+02  0.68804696297E+02  0.47000000000E+01 0. -1.
         13    1    4    4    0    0 -0.54419715751E+02  0.40557263129E+02  0.52678739223E+01  0.68074573451E+02  0.00000000000E+00 0. -1.
        -14    1    4    4    0    0  0.22647225877E+02  0.51685418336E+02  0.21754104466E+02  0.60477436864E+02  0.00000000000E+00 0.  1.
         -5    1    3    3    0  504 -0.70663591079E+02  0.40156562788E+02 -0.86700771158E+02  0.11893278084E+03  0.47000000000E+01 0.  1.
<mgrwt>
<rscale>  2 0.24251832E+03</rscale>
<asrwt>0</asrwt>
<pdfrwt beam="1">  1       21 0.31854942E-01 0.24330230E+03</pdfrwt>
<pdfrwt beam="2">  1       21 0.43748928E-01 0.24330230E+03</pdfrwt>
<totfact> 0.46484935E+04</totfact>
</mgrwt>
</event>
<event>
12    1  0.2791583E-001  0.4355048E+03  0.7546771E-02  0.1032363E+00
         21   -1    0    0  502  503  0.00000000000E+00  0.00000000000E+00  0.11922305945E+04  0.11922305945E+04  0.00000000000E+00 0. -1.
         21   -1    0    0  503  504 -0.00000000000E+00 -0.00000000000E+00 -0.20840131716E+03  0.20840131716E+03  0.00000000000E+00 0.  1.
         -6    2    1    2    0  504  0.34990230328E+03 -0.19357904394E+03  0.14631372200E+03  0.45665270638E+03  0.16498339585E+03 0.  0.
        -24    2    3    3    0    0  0.10630255904E+03 -0.42423947965E+02  0.71039831125E+01  0.13792062479E+03  0.76626410250E+02 0.  0.
          6    2    1    2  502    0 -0.34990230328E+03  0.19357904394E+03  0.83751555533E+03  0.94397920526E+03  0.17251077197E+03 0.  0.
         24    2    5    5    0    0 -0.68668789332E+02  0.74313688929E+02  0.27393916821E+03  0.30291996588E+03  0.80497893500E+02 0.  0.
          4    1    6    6  501    0 -0.77813672581E+02  0.80160254881E+02  0.26842624055E+03  0.29074607602E+03  0.00000000000E+00 0. -1.
         -3    1    6    6    0  501  0.91448832490E+01 -0.58465659515E+01  0.55129276653E+01  0.12173889868E+02  0.00000000000E+00 0.  1.
          5    1    5    5  502    0 -0.28123351395E+03  0.11926535501E+03  0.56357638712E+03  0.64105923938E+03  0.47000000000E+01 0. -1.
         11    1    4    4    0    0  0.38963033669E+02  0.46803560406E+01  0.33509413920E+02  0.51603338522E+02  0.00000000000E+00 0. -1.
        -12    1    4    4    0    0  0.67339525372E+02 -0.47104304006E+02 -0.26405430808E+02  0.86317286272E+02  0.00000000000E+00 0.  1.
         -5    1    3    3    0  504  0.24359974424E+03 -0.15115509598E+03  0.13920973889E+03  0.31873208159E+03  0.47000000000E+01 0.  1.
<mgrwt>
<rscale>  2 0.43477133E+03</rscale>
<asrwt>0</asrwt>
<pdfrwt beam="1">  1       21 0.18342009E+00 0.43550480E+03</pdfrwt>
<pdfrwt beam="2">  1       21 0.32061742E-01 0.43550480E+03</pdfrwt>
<totfact> 0.13698869E+03</totfact>
</mgrwt>
</event>
<event>
12    1  0.2791583E-001  0.2532589E+03  0.7546771E-02  0.1111370E+00
         21   -1    0    0  502  503  0.00000000000E+00  0.00000000000E+00  0.38769055765E+03  0.38769055765E+03  0.00000000000E+00 0.  1.
         21   -1    0    0  503  504 -0.00000000000E+00 -0.00000000000E+00 -0.21181475216E+03  0.21181475216E+03  0.00000000000E+00 0.  1.
         -6    2    1    2    0  504 -0.17936324994E+03  0.36583982861E+02 -0.53091760776E+02  0.25808734644E+03  0.17401373537E+03 0.  0.
        -24    2    3    3    0    0 -0.43638375730E+02 -0.32500222494E+02 -0.19579246841E+02  0.10207757912E+03  0.84118445978E+02 0.  0.
          6    2    1    2  502    0  0.17936324994E+03 -0.36583982861E+02  0.22896756627E+03  0.34141796337E+03  0.17501575952E+03 0.  0.
         24    2    5    5    0    0  0.13837246734E+03 -0.72080148346E+02  0.10192148726E+03  0.20320429468E+03  0.81003137634E+02 0.  0.
          4    1    6    6  501    0  0.13388683285E+03 -0.52546583662E+02  0.58294017583E+02  0.15519349197E+03  0.00000000000E+00 0. -1.
         -3    1    6    6    0  501  0.44856344950E+01 -0.19533564684E+02  0.43627469677E+02  0.48010802706E+02  0.00000000000E+00 0.  1.
          5    1    5    5  502    0  0.40990782591E+02  0.35496165485E+02  0.12704607901E+03  0.13821366869E+03  0.47000000000E+01 0. -1.
         11    1    4    4    0    0 -0.28979805969E+02 -0.52200577799E+02  0.13174111123E+02  0.61141529916E+02  0.00000000000E+00 0. -1.
        -12    1    4    4    0    0 -0.14658569761E+02  0.19700355305E+02 -0.32753357964E+02  0.40936049205E+02  0.00000000000E+00 0.  1.
         -5    1    3    3    0  504 -0.13572487421E+03  0.69084205355E+02 -0.33512513936E+02  0.15600976732E+03  0.47000000000E+01 0.  1.
<mgrwt>
<rscale>  2 0.25308589E+03</rscale>
<asrwt>0</asrwt>
<pdfrwt beam="1">  1       21 0.59644701E-01 0.25325892E+03</pdfrwt>
<pdfrwt beam="2">  1       21 0.32586885E-01 0.25325892E+03</pdfrwt>
<totfact> 0.23036711E+04</totfact>
</mgrwt>
</event>
<event>
12    1  0.2791583E-001  0.2077975E+03  0.7546771E-02  0.1143375E+00
         21   -1    0    0  502  503  0.00000000000E+00  0.00000000000E+00  0.16527688795E+03  0.16527688795E+03  0.00000000000E+00 0.  1.
         21   -1    0    0  503  504 -0.00000000000E+00 -0.00000000000E+00 -0.26107982150E+03  0.26107982150E+03  0.00000000000E+00 0.  1.
         -6    2    1    2    0  504  0.84407746066E+02 -0.77789359474E+02 -0.53032095893E+02  0.21420310955E+03  0.17290088751E+03 0.  0.
        -24    2    3    3    0    0 -0.61297169837E+01 -0.61023693016E+02  0.93280214334E+01  0.10289725157E+03  0.82093652970E+02 0.  0.
          6    2    1    2  502    0 -0.84407746066E+02  0.77789359474E+02 -0.42770837664E+02  0.21215359990E+03  0.17321649273E+03 0.  0.
         24    2    5    5    0    0 -0.12542201704E+03  0.52745988578E+02 -0.20657265954E+02  0.15904577653E+03  0.79724618062E+02 0.  0.
          2    1    6    6  501    0 -0.34845118258E+02  0.49677042967E+02  0.13553896507E+02  0.62174745475E+02  0.00000000000E+00 0. -1.
         -1    1    6    6    0  501 -0.90576898783E+02  0.30689456107E+01 -0.34211162461E+02  0.96871031053E+02  0.00000000000E+00 0.  1.
          5    1    5    5  502    0  0.41014270975E+02  0.25043370896E+02 -0.22113571710E+02  0.53107823372E+02  0.47000000000E+01 0. -1.
         11    1    4    4    0    0 -0.36520441550E+02 -0.25998716996E+01  0.38328436115E+01  0.36812941665E+02  0.00000000000E+00 0. -1.
        -12    1    4    4    0    0  0.30390724566E+02 -0.58423821316E+02  0.54951778219E+01  0.66084309909E+02  0.00000000000E+00 0.  1.
         -5    1    3    3    0  504  0.90537463050E+02 -0.16765666459E+02 -0.62360117327E+02  0.11130585798E+03  0.47000000000E+01 0.  1.
<mgrwt>
<rscale>  2 0.20773173E+03</rscale>
<asrwt>0</asrwt>
<pdfrwt beam="1">  1       21 0.25427214E-01 0.20779751E+03</pdfrwt>
<pdfrwt beam="2">  1       21 0.40166126E-01 0.20779751E+03</pdfrwt>
<totfact> 0.87040924E+04</totfact>
</mgrwt>
</event>
<event>
12    1  0.2791583E-001  0.1787292E+03  0.7546771E-02  0.1169457E+00
         21   -1    0    0  502  503  0.00000000000E+00  0.00000000000E+00  0.12396229444E+03  0.12396229444E+03  0.00000000000E+00 0.  1.
         21   -1    0    0  503  504 -0.00000000000E+00 -0.00000000000E+00 -0.29866448453E+03  0.29866448453E+03  0.00000000000E+00 0.  1.
         -6    2    1    2    0  504  0.34475232214E+02 -0.12672601466E+02 -0.16828067408E+03  0.24548426254E+03  0.17491426877E+03 0.  0.
        -24    2    3    3    0    0  0.18043624641E+02  0.54488600932E+02 -0.61712900022E+02  0.11836461298E+03  0.83109082264E+02 0.  0.
          6    2    1    2  502    0 -0.34475232214E+02  0.12672601466E+02 -0.64215159985E+01  0.17714251643E+03  0.17317360883E+03 0.  0.
         24    2    5    5    0    0 -0.45833335903E+02  0.62834540262E+02  0.27879981064E+02  0.11514324770E+03  0.80198503828E+02 0.  0.
          2    1    6    6  501    0 -0.57282844759E+02  0.15443281682E+02  0.71698367483E+00  0.59332396870E+02  0.00000000000E+00 0. -1.
         -1    1    6    6    0  501  0.11449508856E+02  0.47391258580E+02  0.27162997389E+02  0.55810850827E+02  0.00000000000E+00 0.  1.
          5    1    5    5  502    0  0.11358103689E+02 -0.50161938796E+02 -0.34301497062E+02  0.61999268737E+02  0.47000000000E+01 0. -1.
         11    1    4    4    0    0  0.13164897440E+02  0.13212362000E+02 -0.72959896138E+02  0.75306224701E+02  0.00000000000E+00 0. -1.
        -12    1    4    4    0    0  0.48787272018E+01  0.41276238932E+02  0.11246996116E+02  0.43058388278E+02  0.00000000000E+00 0.  1.
         -5    1    3    3    0  504  0.16431607573E+02 -0.67161202398E+02 -0.10656777406E+03  0.12711964956E+03  0.47000000000E+01 0.  1.
<mgrwt>
<rscale>  2 0.17830191E+03</rscale>
<asrwt>0</asrwt>
<pdfrwt beam="1">  1       21 0.19071122E-01 0.17872923E+03</pdfrwt>
<pdfrwt beam="2">  1       21 0.45948382E-01 0.17872923E+03</pdfrwt>
<totfact> 0.11507727E+05</totfact>
</mgrwt>
</event>
<event>
12    1  0.2791583E-001  0.2462599E+03  0.7546771E-02  0.1115749E+00
         21   -1    0    0  502  503  0.00000000000E+00  0.00000000000E+00  0.75829127834E+02  0.75829127834E+02  0.00000000000E+00 0.  1.
         21   -1    0    0  503  504 -0.00000000000E+00 -0.00000000000E+00 -0.85767928818E+03  0.85767928818E+03  0.00000000000E+00 0. -1.
         -6    2    1    2    0  504 -0.68985169614E+02  0.16015028117E+03 -0.51317630160E+03  0.56905051597E+03  0.17338254530E+03 0.  0.
        -24    2    3    3    0    0 -0.27981781081E+02  0.15246273535E+03 -0.49173690288E+03  0.52191121125E+03  0.80983115733E+02 0.  0.
          6    2    1    2  502    0  0.68985169614E+02 -0.16015028117E+03 -0.26867385874E+03  0.36445790004E+03  0.17388747036E+03 0.  0.
         24    2    5    5    0    0  0.76691426511E+02 -0.56294429372E+02 -0.76059059149E+02  0.14544197512E+03  0.79484274981E+02 0.  0.
          2    1    6    6  501    0  0.32819327569E+02 -0.57686743424E+02 -0.11475474464E+02  0.67353954176E+02  0.00000000000E+00 0. -1.
         -1    1    6    6    0  501  0.43872098942E+02  0.13923140529E+01 -0.64583584684E+02  0.78088020942E+02  0.00000000000E+00 0.  1.
          5    1    5    5  502    0 -0.77062568970E+01 -0.10385585180E+03 -0.19261479959E+03  0.21901592493E+03  0.47000000000E+01 0. -1.
         13    1    4    4    0    0 -0.42343935516E+02  0.32104640879E+02 -0.13161685505E+03  0.14193911855E+03  0.00000000000E+00 0. -1.
        -14    1    4    4    0    0  0.14362154435E+02  0.12035809447E+03 -0.36012004782E+03  0.37997209270E+03  0.00000000000E+00 0.  1.
         -5    1    3    3    0  504 -0.41003388533E+02  0.76875458174E+01 -0.21439398727E+02  0.47139304722E+02  0.47000000000E+01 0.  1.
<mgrwt>
<rscale>  2 0.24617074E+03</rscale>
<asrwt>0</asrwt>
<pdfrwt beam="1">  1       21 0.11666020E-01 0.24625986E+03</pdfrwt>
<pdfrwt beam="2">  1       21 0.13195065E+00 0.24625986E+03</pdfrwt>
<totfact> 0.24915887E+04</totfact>
</mgrwt>
</event>
<event>
12    1  0.2791583E-001  0.3034095E+03  0.7546771E-02  0.1083588E+00
         21   -1    0    0  502  503  0.00000000000E+00  0.00000000000E+00  0.14109019792E+03  0.14109019792E+03  0.00000000000E+00 0.  1.
         21   -1    0    0  503  504 -0.00000000000E+00 -0.00000000000E+00 -0.76292822713E+03  0.76292822713E+03  0.00000000000E+00 0.  1.
         -6    2    1    2    0  504  0.12821083275E+03 -0.21318343857E+03 -0.13825183876E+03  0.33313056927E+03  0.17313927673E+03 0.  0.
        -24    2    3    3    0    0  0.64360955810E+02 -0.92993755460E+02 -0.13986373065E+03  0.19694299676E+03  0.80215395246E+02 0.  0.
          6    2    1    2  502    0 -0.12821083275E+03  0.21318343857E+03 -0.48358619045E+03  0.57088785577E+03  0.17370130731E+03 0.  0.
         24    2    5    5    0    0 -0.14043665809E+03  0.14877029870E+03 -0.27480812703E+03  0.35200685349E+03  0.80834779126E+02 0.  0.
          2    1    6    6  501    0 -0.95777737699E+02  0.43348731717E+02 -0.12159235750E+03  0.16073950660E+03  0.00000000000E+00 0. -1.
         -1    1    6    6    0  501 -0.44658920387E+02  0.10542156698E+03 -0.15321576953E+03  0.19126734689E+03  0.00000000000E+00 0.  1.
          5    1    5    5  502    0  0.12225825338E+02  0.64413139876E+02 -0.20877806342E+03  0.21888100228E+03  0.47000000000E+01 0. -1.
         13    1    4    4    0    0  0.27329331195E+02 -0.12259939212E+02  0.15001312549E+01  0.29990812707E+02  0.00000000000E+00 0. -1.
        -14    1    4    4    0    0  0.37031624615E+02 -0.80733816248E+02 -0.14136386191E+03  0.16695218405E+03  0.00000000000E+00 0.  1.
         -5    1    3    3    0  504  0.63849876937E+02 -0.12018968311E+03  0.16118918868E+01  0.13618757251E+03  0.47000000000E+01 0.  1.
<mgrwt>
<rscale>  2 0.30332914E+03</rscale>
<asrwt>0</asrwt>
<pdfrwt beam="1">  1       21 0.21706184E-01 0.30340953E+03</pdfrwt>
<pdfrwt beam="2">  1       21 0.11737357E+00 0.30340953E+03</pdfrwt>
<totfact> 0.10354796E+04</totfact>
</mgrwt>
</event>
<event>
12    1  0.2791583E-001  0.1794271E+03  0.7546771E-02  0.1168479E+00
         21   -1    0    0  502  503  0.00000000000E+00  0.00000000000E+00  0.53867971893E+02  0.53867971893E+02  0.00000000000E+00 0. -1.
         21   -1    0    0  503  504 -0.00000000000E+00 -0.00000000000E+00 -0.96834814152E+03  0.96834814152E+03  0.00000000000E+00 0. -1.
         -6    2    1    2    0  504  0.49328331004E+02  0.12190369377E+02 -0.77456039256E+03  0.79507100073E+03  0.17208197215E+03 0.  0.
        -24    2    3    3    0    0 -0.32954937836E+02  0.24172918154E+02 -0.32395033859E+03  0.33682911205E+03  0.82702303181E+02 0.  0.
          6    2    1    2  502    0 -0.49328331004E+02 -0.12190369377E+02 -0.13991977707E+03  0.22714511268E+03  0.17156768010E+03 0.  0.
         24    2    5    5    0    0  0.18587663341E+01  0.30961985790E+02 -0.41455342921E+02  0.10798312427E+03  0.94761332272E+02 0.  0.
          4    1    6    6  501    0  0.46887501314E+02  0.42110529558E+01 -0.23496206032E+02  0.52614089790E+02  0.00000000000E+00 0. -1.
         -3    1    6    6    0  501 -0.45028734980E+02  0.26750932834E+02 -0.17959136889E+02  0.55369034480E+02  0.00000000000E+00 0.  1.
          5    1    5    5  502    0 -0.51187097338E+02 -0.43152355167E+02 -0.98464434150E+02  0.11916198841E+03  0.47000000000E+01 0. -1.
         11    1    4    4    0    0 -0.19936561073E+02  0.33153442410E+02 -0.31733741708E+03  0.31968680531E+03  0.00000000000E+00 0. -1.
        -12    1    4    4    0    0 -0.13018376763E+02 -0.89805242563E+01 -0.66129215130E+01  0.17142306741E+02  0.00000000000E+00 0.  1.
         -5    1    3    3    0  504  0.82283268840E+02 -0.11982548777E+02 -0.45061005397E+03  0.45824188869E+03  0.47000000000E+01 0.  1.
<mgrwt>
<rscale>  2 0.17930371E+03</rscale>
<asrwt>0</asrwt>
<pdfrwt beam="1">  1       21 0.82873803E-02 0.17942713E+03</pdfrwt>
<pdfrwt beam="2">  1       21 0.14897664E+00 0.17942713E+03</pdfrwt>
<totfact> 0.34618933E+04</totfact>
</mgrwt>
</event>
<event>
12    1  0.2791583E-001  0.1902588E+03  0.7546771E-02  0.1158995E+00
         21   -1    0    0  502  503  0.00000000000E+00  0.00000000000E+00  0.19619558915E+03  0.19619558915E+03  0.00000000000E+00 0. -1.
         21   -1    0    0  503  504 -0.00000000000E+00 -0.00000000000E+00 -0.19847030335E+03  0.19847030335E+03  0.00000000000E+00 0. -1.
         -6    2    1    2    0  504 -0.53694793404E+02 -0.55566139206E+02  0.57004379341E+02  0.19538612190E+03  0.17016318845E+03 0.  0.
        -24    2    3    3    0    0  0.22368753079E+02 -0.55676070108E+02  0.64563999370E+02  0.11880340163E+03  0.79658975190E+02 0.  0.
          6    2    1    2  502    0  0.53694793404E+02  0.55566139206E+02 -0.59279093548E+02  0.19927977060E+03  0.17386112094E+03 0.  0.
         24    2    5    5    0    0  0.36784996363E+02 -0.13758275827E+02  0.20467147818E+02  0.92165958385E+02  0.80828420955E+02 0.  0.
          4    1    6    6  501    0 -0.10867275304E+02 -0.34761182035E+02  0.16368131869E+02  0.39929352485E+02  0.00000000000E+00 0. -1.
         -3    1    6    6    0  501  0.47652271667E+02  0.21002906208E+02  0.40990159497E+01  0.52236605900E+02  0.00000000000E+00 0.  1.
          5    1    5    5  502    0  0.16909797041E+02  0.69324415033E+02 -0.79746241366E+02  0.10711381222E+03  0.47000000000E+01 0. -1.
         11    1    4    4    0    0  0.25999745303E+02 -0.45074148517E+02  0.82567861026E+02  0.97596707397E+02  0.00000000000E+00 0. -1.
        -12    1    4    4    0    0 -0.36309922234E+01 -0.10601921590E+02 -0.18003861656E+02  0.21206694237E+02  0.00000000000E+00 0.  1.
         -5    1    3    3    0  504 -0.76063546483E+02  0.10993090189E+00 -0.75596200289E+01  0.76582720266E+02  0.47000000000E+01 0.  1.
<mgrwt>
<rscale>  2 0.18940985E+03</rscale>
<asrwt>0</asrwt>
<pdfrwt beam="1">  1       21 0.30183937E-01 0.19025881E+03</pdfrwt>
<pdfrwt beam="2">  1       21 0.30533893E-01 0.19025881E+03</pdfrwt>
<totfact> 0.10851111E+05</totfact>
</mgrwt>
</event>
<event>
12    1  0.2791583E-001  0.2196063E+03  0.7546771E-02  0.1136480E+00
         21   -1    0    0  502  503  0.00000000000E+00  0.00000000000E+00  0.10036400654E+03  0.10036400654E+03  0.00000000000E+00 0. -1.
         21   -1    0    0  503  504 -0.00000000000E+00 -0.00000000000E+00 -0.47805875209E+03  0.47805875209E+03  0.00000000000E+00 0. -1.
         -6    2    1    2    0  504  0.11335443941E+03  0.22536262856E+02 -0.24772552936E+03  0.32323861874E+03  0.17250552070E+03 0.  0.
        -24    2    3    3    0    0  0.80911285382E+02  0.52215754780E+02 -0.24833894030E+03  0.27901309718E+03  0.83084041672E+02 0.  0.
          6    2    1    2  502    0 -0.11335443941E+03 -0.22536262856E+02 -0.12996921619E+03  0.25518413989E+03  0.18673466742E+03 0.  0.
         24    2    5    5    0    0 -0.51869595145E+02  0.46984189363E+02 -0.11956358795E+03  0.16167560311E+03  0.83340147152E+02 0.  0.
          2    1    6    6  501    0 -0.54818707095E+02  0.53658197926E+02 -0.49634139455E+02  0.91366518220E+02  0.00000000000E+00 0. -1.
         -1    1    6    6    0  501  0.29491119502E+01 -0.66740085624E+01 -0.69929448492E+02  0.70309084889E+02  0.00000000000E+00 0.  1.
          5    1    5    5  502    0 -0.61484844267E+02 -0.69520452220E+02 -0.10405628239E+02  0.93508536779E+02  0.47000000000E+01 0. -1.
         11    1    4    4    0    0  0.65600489442E+02  0.79821096949E+01 -0.77363705193E+02  0.10174616047E+03  0.00000000000E+00 0. -1.
        -12    1    4    4    0    0  0.15310795941E+02  0.44233645085E+02 -0.17097523511E+03  0.17726693671E+03  0.00000000000E+00 0.  1.
         -5    1    3    3    0  504  0.32443154030E+02 -0.29679491924E+02  0.61341093798E+00  0.44225521560E+02  0.47000000000E+01 0.  1.
<mgrwt>
<rscale>  2 0.21655218E+03</rscale>
<asrwt>0</asrwt>
<pdfrwt beam="1">  1       21 0.15440616E-01 0.21960635E+03</pdfrwt>
<pdfrwt beam="2">  1       21 0.73547500E-01 0.21960635E+03</pdfrwt>
<totfact> 0.61037960E+04</totfact>
</mgrwt>
</event>
<event>
12    1  0.2791583E-001  0.2145843E+03  0.7546771E-02  0.1138346E+00
         21   -1    0    0  502  503  0.00000000000E+00  0.00000000000E+00  0.15861528338E+03  0.15861528338E+03  0.00000000000E+00 0. -1.
         21   -1    0    0  503  504 -0.00000000000E+00 -0.00000000000E+00 -0.28864772834E+03  0.28864772834E+03  0.00000000000E+00 0. -1.
         -6    2    1    2    0  504 -0.19990248966E+02  0.12388825912E+03 -0.76889209713E+02  0.22619598302E+03  0.17176950067E+03 0.  0.
        -24    2    3    3    0    0 -0.59699269721E+02  0.11410822273E+03 -0.15056539453E+02  0.15191392225E+03  0.79160918965E+02 0.  0.
          6    2    1    2  502    0  0.19990248966E+02 -0.12388825912E+03 -0.53143235251E+02  0.22106702870E+03  0.17406469177E+03 0.  0.
         24    2    5    5    0    0  0.74323866577E+02 -0.54234853735E+02 -0.51757410281E+02  0.13259245949E+03  0.80227640452E+02 0.  0.
          2    1    6    6  501    0  0.78874366652E+02 -0.64940849147E+02 -0.27679969785E+02  0.10585206814E+03  0.00000000000E+00 0. -1.
         -1    1    6    6    0  501 -0.45505000751E+01  0.10705995412E+02 -0.24077440496E+02  0.26740391350E+02  0.00000000000E+00 0.  1.
          5    1    5    5  502    0 -0.54333617611E+02 -0.69653405388E+02 -0.13858249700E+01  0.88474569204E+02  0.47000000000E+01 0. -1.
         13    1    4    4    0    0 -0.11845567550E+02  0.10048264195E+03 -0.14038881896E+02  0.10214778024E+03  0.00000000000E+00 0. -1.
        -14    1    4    4    0    0 -0.47853702171E+02  0.13625580786E+02 -0.10176575570E+01  0.49766142005E+02  0.00000000000E+00 0.  1.
         -5    1    3    3    0  504  0.39709020755E+02  0.97800363902E+01 -0.61832670260E+02  0.74282060773E+02  0.47000000000E+01 0.  1.
<mgrwt>
<rscale>  2 0.21411841E+03</rscale>
<asrwt>0</asrwt>
<pdfrwt beam="1">  1       21 0.24402351E-01 0.21458431E+03</pdfrwt>
<pdfrwt beam="2">  1       21 0.44407343E-01 0.21458431E+03</pdfrwt>
<totfact> 0.76514107E+04</totfact>
</mgrwt>
</event>
<event>
12    1  0.2791583E-001  0.2720088E+03  0.7546771E-02  0.1100665E+00
         21   -1    0    0  502  503  0.00000000000E+00  0.00000000000E+00  0.37471681456E+03  0.37471681456E+03  0.00000000000E+00 0.  1.
         21   -1    0    0  503  504 -0.00000000000E+00 -0.00000000000E+00 -0.21968162682E+03  0.21968162682E+03  0.00000000000E+00 0. -1.
         -6    2    1    2    0  504  0.20570304845E+03  0.40897176923E+00 -0.23030013939E+02  0.26928923542E+03  0.17225678325E+03 0.  0.
        -24    2    3    3    0    0  0.16175405002E+03  0.62612204118E+02 -0.25817018406E+02  0.19293077832E+03  0.80443184802E+02 0.  0.
          6    2    1    2  502    0 -0.20570304845E+03 -0.40897176923E+00  0.17806520168E+03  0.32510920596E+03  0.17797434746E+03 0.  0.
         24    2    5    5    0    0 -0.16180163840E+03 -0.55109633351E+01  0.47209812973E+02  0.18691156895E+03  0.80604139238E+02 0.  0.
          4    1    6    6  501    0 -0.45809513150E+02  0.23915697769E+02  0.42907062861E+02  0.67167612271E+02  0.00000000000E+00 0. -1.
         -3    1    6    6    0  501 -0.11599212525E+03 -0.29426661104E+02  0.43027501116E+01  0.11974395668E+03  0.00000000000E+00 0.  1.
          5    1    5    5  502    0 -0.43901410053E+02  0.51019915659E+01  0.13085538871E+03  0.13819763701E+03  0.47000000000E+01 0. -1.
         11    1    4    4    0    0  0.14584865067E+03  0.52391535959E+02 -0.49444892253E+02  0.16266990906E+03  0.00000000000E+00 0. -1.
        -12    1    4    4    0    0  0.15905399352E+02  0.10220668159E+02  0.23627873846E+02  0.30260869265E+02  0.00000000000E+00 0.  1.
         -5    1    3    3    0  504  0.43948998426E+02 -0.62203232349E+02  0.27870044666E+01  0.76358457103E+02  0.47000000000E+01 0.  1.
<mgrwt>
<rscale>  2 0.27107748E+03</rscale>
<asrwt>0</asrwt>
<pdfrwt beam="1">  1       21 0.57648741E-01 0.27200879E+03</pdfrwt>
<pdfrwt beam="2">  1       21 0.33797173E-01 0.27200879E+03</pdfrwt>
<totfact> 0.22865997E+04</totfact>
</mgrwt>
</event>
<event>
12    1  0.2791583E-001  0.3590260E+03  0.7546771E-02  0.1059022E+00
         21   -1    0    0  502  503  0.00000000000E+00  0.00000000000E+00  0.97901301398E+03  0.97901301398E+03  0.00000000000E+00 0.  1.
         21   -1    0    0  503  504 -0.00000000000E+00 -0.00000000000E+00 -0.19576191139E+03  0.19576191139E+03  0.00000000000E+00 0. -1.
         -6    2    1    2    0  504 -0.14864154419E+03 -0.27794483168E+03  0.55200550159E+02  0.36324481297E+03  0.17190711240E+03 0.  0.
        -24    2    3    3    0    0 -0.16810765928E+03 -0.20877697927E+03  0.71678846036E+02  0.28937502429E+03  0.82170770573E+02 0.  0.
          6    2    1    2  502    0  0.14864154419E+03  0.27794483168E+03  0.72805055243E+03  0.81153011241E+03  0.17080947961E+03 0.  0.
         24    2    5    5    0    0  0.42946472392E+02  0.17053609852E+03  0.51833058014E+03  0.55324220921E+03  0.80519509104E+02 0.  0.
          4    1    6    6  501    0 -0.12274079541E+02 -0.10841888755E+01  0.47591594931E+02  0.49160842163E+02  0.00000000000E+00 0. -1.
         -3    1    6    6    0  501  0.55220551933E+02  0.17162028740E+03  0.47073898521E+03  0.50408136704E+03  0.00000000000E+00 0.  1.
          5    1    5    5  502    0  0.10569507180E+03  0.10740873316E+03  0.20971997229E+03  0.25828790320E+03  0.47000000000E+01 0. -1.
         11    1    4    4    0    0 -0.10093585945E+03 -0.12073199551E+03 -0.16972333810E+00  0.15736674131E+03  0.00000000000E+00 0. -1.
        -12    1    4    4    0    0 -0.67171799829E+02 -0.88044983756E+02  0.71848569374E+02  0.13200828299E+03  0.00000000000E+00 0.  1.
         -5    1    3    3    0  504  0.19466115087E+02 -0.69167852412E+02 -0.16478295877E+02  0.73869788675E+02  0.47000000000E+01 0.  1.
<mgrwt>
<rscale>  2 0.35889490E+03</rscale>
<asrwt>0</asrwt>
<pdfrwt beam="1">  1       21 0.15061738E+00 0.35902603E+03</pdfrwt>
<pdfrwt beam="2">  1       21 0.30117218E-01 0.35902603E+03</pdfrwt>
<totfact> 0.27997075E+03</totfact>
</mgrwt>
</event>
<event>
12    1  0.2791583E-001  0.1980256E+03  0.7546771E-02  0.1151736E+00
         21   -1    0    0  502  503  0.00000000000E+00  0.00000000000E+00  0.24067316474E+02  0.24067316474E+02  0.00000000000E+00 0. -1.
         21   -1    0    0  503  504 -0.00000000000E+00 -0.00000000000E+00 -0.16600942820E+04  0.16600942820E+04  0.00000000000E+00 0. -1.
         -6    2    1    2    0  504 -0.39875007795E+01 -0.96755494842E+02 -0.95654956658E+03  0.97683223969E+03  0.17273281461E+03 0.  0.
        -24    2    3    3    0    0  0.59607678347E+01 -0.13122592667E+03 -0.64355450421E+03  0.66175260248E+03  0.80612234921E+02 0.  0.
          6    2    1    2  502    0  0.39875007795E+01  0.96755494842E+02 -0.67947739894E+03  0.70732935877E+03  0.17101976542E+03 0.  0.
         24    2    5    5    0    0  0.53083155292E+02  0.34288512461E+02 -0.24189043299E+03  0.26256318430E+03  0.80217957574E+02 0.  0.
          2    1    6    6  501    0  0.39712714901E+02  0.49459980047E+02 -0.23109045418E+03  0.23963761676E+03  0.00000000000E+00 0. -1.
         -1    1    6    6    0  501  0.13370440391E+02 -0.15171467586E+02 -0.10799978802E+02  0.22925567541E+02  0.00000000000E+00 0.  1.
          5    1    5    5  502    0 -0.49095654512E+02  0.62466982381E+02 -0.43758696596E+03  0.44476617447E+03  0.47000000000E+01 0. -1.
         11    1    4    4    0    0 -0.10982458042E+02 -0.79191361866E+02 -0.52652874231E+03  0.53256398926E+03  0.00000000000E+00 0. -1.
        -12    1    4    4    0    0  0.16943225877E+02 -0.52034564808E+02 -0.11702576190E+03  0.12918861322E+03  0.00000000000E+00 0.  1.
         -5    1    3    3    0  504 -0.99482686142E+01  0.34470431832E+02 -0.31299506237E+03  0.31507963722E+03  0.47000000000E+01 0.  1.
<mgrwt>
<rscale>  2 0.19765146E+03</rscale>
<asrwt>0</asrwt>
<pdfrwt beam="1">  1       21 0.37026626E-02 0.19802563E+03</pdfrwt>
<pdfrwt beam="2">  1       21 0.25539922E+00 0.19802563E+03</pdfrwt>
<totfact> 0.27440002E+04</totfact>
</mgrwt>
</event>
<event>
12    1  0.2791583E-001  0.1916582E+03  0.7546771E-02  0.1157002E+00
         21   -1    0    0  502  503  0.00000000000E+00  0.00000000000E+00  0.25426570360E+03  0.25426570360E+03  0.00000000000E+00 0. -1.
         21   -1    0    0  503  504 -0.00000000000E+00 -0.00000000000E+00 -0.18849098483E+03  0.18849098483E+03  0.00000000000E+00 0. -1.
         -6    2    1    2    0  504 -0.49973108658E+02 -0.60533097422E+02 -0.74224537116E+02  0.20541163579E+03  0.17470858805E+03 0.  0.
        -24    2    3    3    0    0  0.35575005332E+02 -0.18276169898E+02 -0.74762547132E+02  0.10987888128E+03  0.69887986852E+02 0.  0.
          6    2    1    2  502    0  0.49973108658E+02  0.60533097422E+02  0.13999925588E+03  0.23734505263E+03  0.17484654669E+03 0.  0.
         24    2    5    5    0    0  0.19587846687E+02  0.75439101113E+02  0.16176397665E+03  0.19683275621E+03  0.80627588710E+02 0.  0.
          2    1    6    6  501    0  0.10449972731E+02 -0.57453092357E+01  0.81280272622E+02  0.82150430466E+02  0.00000000000E+00 0. -1.
         -1    1    6    6    0  501  0.91378739553E+01  0.81184410348E+02  0.80483704030E+02  0.11468232575E+03  0.00000000000E+00 0.  1.
          5    1    5    5  502    0  0.30385261972E+02 -0.14906003690E+02 -0.21764720767E+02  0.40512296420E+02  0.47000000000E+01 0. -1.
         11    1    4    4    0    0 -0.39122787072E+01  0.13625984743E+02 -0.52619264645E+02  0.54495508041E+02  0.00000000000E+00 0. -1.
        -12    1    4    4    0    0  0.39487284039E+02 -0.31902154641E+02 -0.22143282488E+02  0.55383373234E+02  0.00000000000E+00 0.  1.
         -5    1    3    3    0  504 -0.85548113990E+02 -0.42256927524E+02  0.53801001667E+00  0.95532754518E+02  0.47000000000E+01 0.  1.
<mgrwt>
<rscale>  2 0.19162677E+03</rscale>
<asrwt>0</asrwt>
<pdfrwt beam="1">  1       21 0.39117800E-01 0.19165824E+03</pdfrwt>
<pdfrwt beam="2">  1       21 0.28998613E-01 0.19165824E+03</pdfrwt>
<totfact> 0.71758283E+04</totfact>
</mgrwt>
</event>
<event>
12    1  0.2791583E-001  0.2349438E+03  0.7546771E-02  0.1123216E+00
         21   -1    0    0  502  503  0.00000000000E+00  0.00000000000E+00  0.22036136560E+03  0.22036136560E+03  0.00000000000E+00 0.  1.
         21   -1    0    0  503  504 -0.00000000000E+00 -0.00000000000E+00 -0.34556490077E+03  0.34556490077E+03  0.00000000000E+00 0.  1.
         -6    2    1    2    0  504 -0.15710497240E+03  0.19160986682E+02 -0.21106508262E+03  0.31582755041E+03  0.17363598917E+03 0.  0.
        -24    2    3    3    0    0 -0.17795060954E+03  0.26585812113E+02 -0.21054085166E+03  0.29319939453E+03  0.96255960304E+02 0.  0.
          6    2    1    2  502    0  0.15710497240E+03 -0.19160986682E+02  0.85861547451E+02  0.25009871596E+03  0.17357432595E+03 0.  0.
         24    2    5    5    0    0  0.46470048202E+02  0.28796057692E+02  0.85356527182E+02  0.12942432098E+03  0.80475088131E+02 0.  0.
          2    1    6    6  501    0  0.80526358728E+01  0.39990819598E+02  0.69282615819E+01  0.41377667952E+02  0.00000000000E+00 0. -1.
         -1    1    6    6    0  501  0.38417412329E+02 -0.11194761906E+02  0.78428265600E+02  0.88046653027E+02  0.00000000000E+00 0.  1.
          5    1    5    5  502    0  0.11063492420E+03 -0.47957044374E+02  0.50502026864E+00  0.12067439498E+03  0.47000000000E+01 0. -1.
         13    1    4    4    0    0 -0.12496853787E+03 -0.26717394536E+02 -0.11754495037E+03  0.17363113196E+03  0.00000000000E+00 0. -1.
        -14    1    4    4    0    0 -0.52982071670E+02  0.53303206649E+02 -0.92995901293E+02  0.11956826257E+03  0.00000000000E+00 0.  1.
         -5    1    3    3    0  504  0.20845637136E+02 -0.74248254310E+01 -0.52423095089E+00  0.22628155876E+02  0.47000000000E+01 0.  1.
<mgrwt>
<rscale>  2 0.23493237E+03</rscale>
<asrwt>0</asrwt>
<pdfrwt beam="1">  1       21 0.33901749E-01 0.23494376E+03</pdfrwt>
<pdfrwt beam="2">  1       21 0.53163831E-01 0.23494376E+03</pdfrwt>
<totfact> 0.27468107E+04</totfact>
</mgrwt>
</event>
<event>
12    1  0.2791583E-001  0.1782897E+03  0.7546771E-02  0.1170178E+00
         21   -1    0    0  502  503  0.00000000000E+00  0.00000000000E+00  0.73382219379E+02  0.73382219379E+02  0.00000000000E+00 0. -1.
         21   -1    0    0  503  504 -0.00000000000E+00 -0.00000000000E+00 -0.51730024649E+03  0.51730024649E+03  0.00000000000E+00 0. -1.
         -6    2    1    2    0  504  0.17151283196E+02 -0.47729089688E+01 -0.34735922031E+03  0.39044289506E+03  0.17739864485E+03 0.  0.
        -24    2    3    3    0    0 -0.59787652906E+02 -0.11569162968E+02 -0.14826233332E+03  0.17683706797E+03  0.74707564253E+02 0.  0.
          6    2    1    2  502    0 -0.17151283196E+02  0.47729089688E+01 -0.96558806802E+02  0.20023957081E+03  0.17451457065E+03 0.  0.
         24    2    5    5    0    0 -0.42521878292E+02 -0.13512115787E+02 -0.12942881281E+03  0.15462667218E+03  0.71881171089E+02 0.  0.
          4    1    6    6  501    0  0.17197606786E+02 -0.11691316837E+02 -0.57354688131E+02  0.61008235666E+02  0.00000000000E+00 0. -1.
         -3    1    6    6    0  501 -0.59719485078E+02 -0.18207989506E+01 -0.72074124683E+02  0.93618436515E+02  0.00000000000E+00 0.  1.
          5    1    5    5  502    0  0.25370595097E+02  0.18285024756E+02  0.32870006011E+02  0.45612898626E+02  0.47000000000E+01 0. -1.
         13    1    4    4    0    0 -0.48365060415E+02 -0.17937069766E+02 -0.33892808034E+02  0.61722281043E+02  0.00000000000E+00 0. -1.
        -14    1    4    4    0    0 -0.11422592491E+02  0.63679067973E+01 -0.11436952528E+03  0.11511478693E+03  0.00000000000E+00 0.  1.
         -5    1    3    3    0  504  0.76938936102E+02  0.67962539996E+01 -0.19909688699E+03  0.21360582709E+03  0.47000000000E+01 0.  1.
<mgrwt>
<rscale>  2 0.17756800E+03</rscale>
<asrwt>0</asrwt>
<pdfrwt beam="1">  1       21 0.11289573E-01 0.17828973E+03</pdfrwt>
<pdfrwt beam="2">  1       21 0.79584650E-01 0.17828973E+03</pdfrwt>
<totfact> 0.91595696E+04</totfact>
</mgrwt>
</event>
<event>
12    1  0.2791583E-001  0.3694361E+03  0.7546771E-02  0.1054920E+00
         21   -1    0    0  502  503  0.00000000000E+00  0.00000000000E+00  0.29696686125E+03  0.29696686125E+03  0.00000000000E+00 0.  1.
         21   -1    0    0  503  504 -0.00000000000E+00 -0.00000000000E+00 -0.13265386932E+04  0.13265386932E+04  0.00000000000E+00 0.  1.
         -6    2    1    2    0  504  0.15950400814E+03  0.28438794915E+03 -0.11711085896E+04  0.12279977099E+04  0.17368077807E+03 0.  0.
        -24    2    3    3    0    0  0.11686937741E+02  0.81884385274E+02 -0.29889699394E+03  0.32045556913E+03  0.80689043462E+02 0.  0.
          6    2    1    2  502    0 -0.15950400814E+03 -0.28438794915E+03  0.14153675768E+03  0.39550784452E+03  0.17342366354E+03 0.  0.
         24    2    5    5    0    0 -0.17350762578E+03 -0.17648847319E+03  0.10406155094E+03  0.28033458661E+03  0.80657279220E+02 0.  0.
          2    1    6    6  501    0 -0.22275790333E+02  0.62190027518E+01  0.92304523773E+01  0.24901567847E+02  0.00000000000E+00 0. -1.
         -1    1    6    6    0  501 -0.15123183545E+03 -0.18270747595E+03  0.94831098564E+02  0.25543301876E+03  0.00000000000E+00 0.  1.
          5    1    5    5  502    0  0.14003617647E+02 -0.10789947595E+03  0.37475206735E+02  0.11517325791E+03  0.47000000000E+01 0. -1.
         13    1    4    4    0    0  0.28700700844E+02 -0.22721973662E+01 -0.58834865353E+02  0.65501408312E+02  0.00000000000E+00 0. -1.
        -14    1    4    4    0    0 -0.17013763103E+02  0.84156582640E+02 -0.24006212859E+03  0.25495416082E+03  0.00000000000E+00 0.  1.
         -5    1    3    3    0  504  0.14781707040E+03  0.20250356387E+03 -0.87221159565E+03  0.90754214077E+03  0.47000000000E+01 0.  1.
<mgrwt>
<rscale>  2 0.36940591E+03</rscale>
<asrwt>0</asrwt>
<pdfrwt beam="1">  1       21 0.45687210E-01 0.36943612E+03</pdfrwt>
<pdfrwt beam="2">  1       21 0.20408287E+00 0.36943612E+03</pdfrwt>
<totfact> 0.49896199E+02</totfact>
</mgrwt>
</event>
<event>
12    1  0.2791583E-001  0.1978237E+03  0.7546771E-02  0.1152272E+00
         21   -1    0    0  502  503  0.00000000000E+00  0.00000000000E+00  0.67827662986E+02  0.67827662986E+02  0.00000000000E+00 0. -1.
         21   -1    0    0  503  504 -0.00000000000E+00 -0.00000000000E+00 -0.60577760111E+03  0.60577760111E+03  0.00000000000E+00 0. -1.
         -6    2    1    2    0  504 -0.89255918709E+02  0.10847448881E+02 -0.35537321386E+03  0.40672389318E+03  0.17620986913E+03 0.  0.
        -24    2    3    3    0    0  0.15771226418E+02  0.20022746857E+02 -0.10432199447E+03  0.13439377721E+03  0.80802022543E+02 0.  0.
          6    2    1    2  502    0  0.89255918709E+02 -0.10847448881E+02 -0.18257672426E+03  0.26688137092E+03  0.17264738553E+03 0.  0.
         24    2    5    5    0    0  0.11675725520E+03 -0.41384814758E+02 -0.16693817970E+03  0.22266024136E+03  0.79776360580E+02 0.  0.
          4    1    6    6  501    0  0.92217255909E+02 -0.50386089792E+02 -0.16604806326E+03  0.19650633487E+03  0.00000000000E+00 0. -1.
         -3    1    6    6    0  501  0.24539999290E+02  0.90012750342E+01 -0.89011643877E+00  0.26153906489E+02  0.00000000000E+00 0.  1.
          5    1    5    5  502    0 -0.27501336489E+02  0.30537365878E+02 -0.15638544561E+02  0.44221129559E+02  0.47000000000E+01 0. -1.
         11    1    4    4    0    0 -0.15794548769E+02  0.52047697245E+01  0.67717204371E+01  0.17955879159E+02  0.00000000000E+00 0. -1.
        -12    1    4    4    0    0  0.31565775187E+02  0.14817977133E+02 -0.11109371491E+03  0.11643789805E+03  0.00000000000E+00 0.  1.
         -5    1    3    3    0  504 -0.10502714513E+03 -0.91752979767E+01 -0.25105121939E+03  0.27233011597E+03  0.47000000000E+01 0.  1.
<mgrwt>
<rscale>  2 0.19702724E+03</rscale>
<asrwt>0</asrwt>
<pdfrwt beam="1">  1       21 0.10435025E-01 0.19782367E+03</pdfrwt>
<pdfrwt beam="2">  1       21 0.93196553E-01 0.19782367E+03</pdfrwt>
<totfact> 0.72732130E+04</totfact>
</mgrwt>
</event>
<event>
12    1  0.2791583E-001  0.2565069E+03  0.7546771E-02  0.1109363E+00
         21   -1    0    0  502  503  0.00000000000E+00  0.00000000000E+00  0.15436643205E+03  0.15436643205E+03  0.00000000000E+00 0. -1.
         21   -1    0    0  503  504 -0.00000000000E+00 -0.00000000000E+00 -0.79672110930E+03  0.79672110930E+03  0.00000000000E+00 0. -1.
         -6    2    1    2    0  504  0.16368955946E+03  0.94793645585E+02 -0.64617503360E+03  0.69522511646E+03  0.17325034311E+03 0.  0.
        -24    2    3    3    0    0  0.15991192652E+03  0.10928206426E+03 -0.42853726354E+03  0.47702228938E+03  0.79948011307E+02 0.  0.
          6    2    1    2  502    0 -0.16368955946E+03 -0.94793645585E+02  0.38203563543E+01  0.25586242489E+03  0.17225236785E+03 0.  0.
         24    2    5    5    0    0 -0.24162745432E+02 -0.59318053339E+02 -0.20575625778E+02  0.10976826546E+03  0.86736647423E+02 0.  0.
          4    1    6    6  501    0  0.13367469627E+02  0.21438339434E+01  0.22203866920E+02  0.26005710419E+02  0.00000000000E+00 0. -1.
         -3    1    6    6    0  501 -0.37530215059E+02 -0.61461887282E+02 -0.42779492699E+02  0.83762555036E+02  0.00000000000E+00 0.  1.
          5    1    5    5  502    0 -0.13952681402E+03 -0.35475592247E+02  0.24395982133E+02  0.14609415943E+03  0.47000000000E+01 0. -1.
         11    1    4    4    0    0  0.29527411110E+02  0.20849299523E+01 -0.13686666984E+03  0.14003106888E+03  0.00000000000E+00 0. -1.
        -12    1    4    4    0    0  0.13038451541E+03  0.10719713431E+03 -0.29167059370E+03  0.33699122049E+03  0.00000000000E+00 0.  1.
         -5    1    3    3    0  504  0.37776329356E+01 -0.14488418679E+02 -0.21763777007E+03  0.21820282708E+03  0.47000000000E+01 0.  1.
<mgrwt>
<rscale>  2 0.25633848E+03</rscale>
<asrwt>0</asrwt>
<pdfrwt beam="1">  1       21 0.23748682E-01 0.25650690E+03</pdfrwt>
<pdfrwt beam="2">  1       21 0.12257248E+00 0.25650690E+03</pdfrwt>
<totfact> 0.80177175E+03</totfact>
</mgrwt>
</event>
<event>
12    1  0.2791583E-001  0.2191804E+03  0.7546771E-02  0.1134541E+00
         21   -1    0    0  502  503  0.00000000000E+00  0.00000000000E+00  0.23705152085E+03  0.23705152085E+03  0.00000000000E+00 0. -1.
         21   -1    0    0  503  504 -0.00000000000E+00 -0.00000000000E+00 -0.27553231855E+03  0.27553231855E+03  0.00000000000E+00 0.  1.
         -6    2    1    2    0  504  0.12104253685E+03  0.56551259560E+02 -0.15124435762E+03  0.26609716110E+03  0.17344596493E+03 0.  0.
        -24    2    3    3    0    0 -0.14001617375E+01 -0.41555615790E+01 -0.69535921812E+02  0.10679904105E+03  0.80941717313E+02 0.  0.
          6    2    1    2  502    0 -0.12104253685E+03 -0.56551259560E+02  0.11276355991E+03  0.24648667831E+03  0.17375477390E+03 0.  0.
         24    2    5    5    0    0 -0.14128444340E+03 -0.57101903293E+02  0.48376362301E+02  0.17882694726E+03  0.80105451310E+02 0.  0.
          2    1    6    6  501    0 -0.11480282749E+03 -0.76122314907E+01  0.41348728365E+02  0.12225936613E+03  0.00000000000E+00 0. -1.
         -1    1    6    6    0  501 -0.26481615907E+02 -0.49489671802E+02  0.70276339359E+01  0.56567581129E+02  0.00000000000E+00 0.  1.
          5    1    5    5  502    0  0.20241906550E+02  0.55064373232E+00  0.64387197612E+02  0.67659731049E+02  0.47000000000E+01 0. -1.
         11    1    4    4    0    0 -0.36339876322E+01 -0.16462656113E+01  0.18385547150E+02  0.18813410126E+02  0.00000000000E+00 0. -1.
        -12    1    4    4    0    0  0.22338258947E+01 -0.25092959676E+01 -0.87921468961E+02  0.87985630922E+02  0.00000000000E+00 0.  1.
         -5    1    3    3    0  504  0.12244269859E+03  0.60706821139E+02 -0.81708435805E+02  0.15929812005E+03  0.47000000000E+01 0.  1.
<mgrwt>
<rscale>  2 0.21911923E+03</rscale>
<asrwt>0</asrwt>
<pdfrwt beam="1">  1       21 0.36469465E-01 0.21918043E+03</pdfrwt>
<pdfrwt beam="2">  1       21 0.42389587E-01 0.21918043E+03</pdfrwt>
<totfact> 0.38309465E+04</totfact>
</mgrwt>
</event>
<event>
12    1  0.2791583E-001  0.2172263E+03  0.7546771E-02  0.1136271E+00
         21   -1    0    0  502  503  0.00000000000E+00  0.00000000000E+00  0.11483626418E+03  0.11483626418E+03  0.00000000000E+00 0. -1.
         21   -1    0    0  503  504 -0.00000000000E+00 -0.00000000000E+00 -0.42743570868E+03  0.42743570868E+03  0.00000000000E+00 0.  1.
         -6    2    1    2    0  504  0.10408895836E+03  0.84262936434E+02 -0.21481897986E+03  0.30550687184E+03  0.17103362513E+03 0.  0.
        -24    2    3    3    0    0  0.53871645243E+01  0.31812760685E+01 -0.12849234994E+03  0.15126467013E+03  0.79571190630E+02 0.  0.
          6    2    1    2  502    0 -0.10408895836E+03 -0.84262936434E+02 -0.97780464644E+02  0.23676510102E+03  0.16900278130E+03 0.  0.
         24    2    5    5    0    0 -0.44647826746E+02  0.49964472233E+01  0.29531000107E+00  0.91364161304E+02  0.79554571489E+02 0.  0.
          2    1    6    6  501    0 -0.46684391493E+02  0.36791556402E+02 -0.14369192587E+01  0.59456839544E+02  0.00000000000E+00 0. -1.
         -1    1    6    6    0  501  0.20365647474E+01 -0.31795109179E+02  0.17322292598E+01  0.31907321760E+02  0.00000000000E+00 0.  1.
          5    1    5    5  502    0 -0.59441131615E+02 -0.89259383657E+02 -0.98075774645E+02  0.14540093972E+03  0.47000000000E+01 0. -1.
         11    1    4    4    0    0 -0.61719626846E+01  0.43534211680E+01  0.98627882498E+01  0.12422559773E+02  0.00000000000E+00 0. -1.
        -12    1    4    4    0    0  0.11559127209E+02 -0.11721450996E+01 -0.13835513819E+03  0.13884211036E+03  0.00000000000E+00 0.  1.
         -5    1    3    3    0  504  0.98701793836E+02  0.81081660365E+02 -0.86326629926E+02  0.15424220171E+03  0.47000000000E+01 0.  1.
<mgrwt>
<rscale>  2 0.21682633E+03</rscale>
<asrwt>0</asrwt>
<pdfrwt beam="1">  1       21 0.17667118E-01 0.21722628E+03</pdfrwt>
<pdfrwt beam="2">  1       21 0.65759339E-01 0.21722628E+03</pdfrwt>
<totfact> 0.61063071E+04</totfact>
</mgrwt>
</event>
<event>
12    1  0.2791583E-001  0.1953545E+03  0.7546771E-02  0.1156736E+00
         21   -1    0    0  502  503  0.00000000000E+00  0.00000000000E+00  0.26586762508E+03  0.26586762508E+03  0.00000000000E+00 0.  1.
         21   -1    0    0  503  504 -0.00000000000E+00 -0.00000000000E+00 -0.13678276540E+03  0.13678276540E+03  0.00000000000E+00 0. -1.
         -6    2    1    2    0  504 -0.37343553208E+02 -0.50423285590E+02  0.37541010533E+02  0.19892889983E+03  0.18500359732E+03 0.  0.
        -24    2    3    3    0    0  0.40403986496E+02 -0.46370707700E+02  0.58047614525E+02  0.11828329162E+03  0.82696353403E+02 0.  0.
          6    2    1    2  502    0  0.37343553208E+02  0.50423285590E+02  0.91543849148E+02  0.20372149065E+03  0.17083653221E+03 0.  0.
         24    2    5    5    0    0 -0.21109616695E+02  0.78271338168E+02  0.72202926191E+02  0.13598340384E+03  0.81891423681E+02 0.  0.
          2    1    6    6  501    0 -0.17681359614E+02  0.11047731543E+01 -0.12246231408E+02  0.21536508195E+02  0.00000000000E+00 0. -1.
         -1    1    6    6    0  501 -0.34282570813E+01  0.77166565014E+02  0.84449157599E+02  0.11444689564E+03  0.00000000000E+00 0.  1.
          5    1    5    5  502    0  0.58453169903E+02 -0.27848052578E+02  0.19340922957E+02  0.67738086812E+02  0.47000000000E+01 0. -1.
         11    1    4    4    0    0  0.33269473121E+02 -0.93556675416E+01  0.70556310790E+02  0.78565764486E+02  0.00000000000E+00 0. -1.
        -12    1    4    4    0    0  0.71345133751E+01 -0.37015040159E+02 -0.12508696266E+02  0.39717527130E+02  0.00000000000E+00 0.  1.
         -5    1    3    3    0  504 -0.77747539704E+02 -0.40525778898E+01 -0.20506603992E+02  0.80645608218E+02  0.47000000000E+01 0.  1.
<mgrwt>
<rscale>  2 0.19192538E+03</rscale>
<asrwt>0</asrwt>
<pdfrwt beam="1">  1       21 0.40902712E-01 0.19535450E+03</pdfrwt>
<pdfrwt beam="2">  1       21 0.21043502E-01 0.19535450E+03</pdfrwt>
<totfact> 0.12071111E+05</totfact>
</mgrwt>
</event>
<event>
12    1  0.2791583E-001  0.2557110E+03  0.7546771E-02  0.1109764E+00
         21   -1    0    0  502  503  0.00000000000E+00  0.00000000000E+00  0.64488944582E+02  0.64488944582E+02  0.00000000000E+00 0.  1.
         21   -1    0    0  503  504 -0.00000000000E+00 -0.00000000000E+00 -0.11661817546E+04  0.11661817546E+04  0.00000000000E+00 0.  1.
         -6    2    1    2    0  504 -0.21590283244E+02 -0.18695175838E+03 -0.77337721582E+03  0.81452260236E+03  0.17296719780E+03 0.  0.
        -24    2    3    3    0    0 -0.17768102682E+02 -0.70547418411E+02 -0.18449481981E+03  0.21421505971E+03  0.80975981344E+02 0.  0.
          6    2    1    2  502    0  0.21590283244E+02  0.18695175838E+03 -0.32831559418E+03  0.41614809680E+03  0.17312137013E+03 0.  0.
         24    2    5    5    0    0 -0.63747312183E+01  0.19729454984E+03 -0.23173952962E+03  0.31496488864E+03  0.80832511337E+02 0.  0.
          2    1    6    6  501    0 -0.35493931174E+02  0.41415804563E+02 -0.53654866944E+02  0.76510997671E+02  0.00000000000E+00 0. -1.
         -1    1    6    6    0  501  0.29119199955E+02  0.15587874528E+03 -0.17808466268E+03  0.23845389097E+03  0.00000000000E+00 0.  1.
          5    1    5    5  502    0  0.27965014463E+02 -0.10342791459E+02 -0.96576064555E+02  0.10118320816E+03  0.47000000000E+01 0. -1.
         11    1    4    4    0    0  0.28545163189E+02 -0.12033021586E+02 -0.80177522314E+02  0.85953795928E+02  0.00000000000E+00 0. -1.
        -12    1    4    4    0    0 -0.46313265871E+02 -0.58514396825E+02 -0.10431729749E+03  0.12826126379E+03  0.00000000000E+00 0.  1.
         -5    1    3    3    0  504 -0.38221805629E+01 -0.11640433997E+03 -0.58888239601E+03  0.60030754265E+03  0.47000000000E+01 0.  1.
<mgrwt>
<rscale>  2 0.25568490E+03</rscale>
<asrwt>0</asrwt>
<pdfrwt beam="1">  1       21 0.99213763E-02 0.25571099E+03</pdfrwt>
<pdfrwt beam="2">  1       21 0.17941257E+00 0.25571099E+03</pdfrwt>
<totfact> 0.14479661E+04</totfact>
</mgrwt>
</event>
<event>
12    1  0.2791583E-001  0.2092023E+03  0.7546771E-02  0.1142699E+00
         21   -1    0    0  502  503  0.00000000000E+00  0.00000000000E+00  0.26428313766E+03  0.26428313766E+03  0.00000000000E+00 0. -1.
         21   -1    0    0  503  504 -0.00000000000E+00 -0.00000000000E+00 -0.16603937153E+03  0.16603937153E+03  0.00000000000E+00 0. -1.
         -6    2    1    2    0  504 -0.10634609473E+03  0.33970576676E+02  0.74734110032E+02  0.21980340944E+03  0.17396798457E+03 0.  0.
        -24    2    3    3    0    0 -0.10282983706E+03  0.82021507247E+02  0.75190065162E+02  0.17139314305E+03  0.80128400373E+02 0.  0.
          6    2    1    2  502    0  0.10634609473E+03 -0.33970576676E+02  0.23509656088E+02  0.21051909975E+03  0.17692398222E+03 0.  0.
         24    2    5    5    0    0  0.14136107713E+03 -0.41607903139E+01  0.24216810493E+02  0.16428856414E+03  0.80025071670E+02 0.  0.
          2    1    6    6  501    0  0.10546998610E+03 -0.28375214690E+02  0.42623573824E+02  0.11724265360E+03  0.00000000000E+00 0. -1.
         -1    1    6    6    0  501  0.35891091021E+02  0.24214424376E+02 -0.18406763331E+02  0.47045910544E+02  0.00000000000E+00 0.  1.
          5    1    5    5  502    0 -0.35014982392E+02 -0.29809786362E+02 -0.70715440538E+00  0.46230535604E+02  0.47000000000E+01 0. -1.
         13    1    4    4    0    0 -0.65266589155E+02  0.77270577446E+02  0.85179863367E+02  0.13223493836E+03  0.00000000000E+00 0. -1.
        -14    1    4    4    0    0 -0.37563247903E+02  0.47509298007E+01 -0.99897982044E+01  0.39158204698E+02  0.00000000000E+00 0.  1.
         -5    1    3    3    0  504 -0.35162576753E+01 -0.48050930571E+02 -0.45595512974E+00  0.48410266389E+02  0.47000000000E+01 0.  1.
<mgrwt>
<rscale>  2 0.20857598E+03</rscale>
<asrwt>0</asrwt>
<pdfrwt beam="1">  1       21 0.40658944E-01 0.20920226E+03</pdfrwt>
<pdfrwt beam="2">  1       21 0.25544519E-01 0.20920226E+03</pdfrwt>
<totfact> 0.84121155E+04</totfact>
</mgrwt>
</event>
<event>
12    1  0.2791583E-001  0.2336698E+03  0.7546771E-02  0.1124676E+00
         21   -1    0    0  502  503  0.00000000000E+00  0.00000000000E+00  0.10504422334E+03  0.10504422334E+03  0.00000000000E+00 0. -1.
         21   -1    0    0  503  504 -0.00000000000E+00 -0.00000000000E+00 -0.77679782104E+03  0.77679782104E+03  0.00000000000E+00 0.  1.
         -6    2    1    2    0  504 -0.82313401723E+01 -0.15560403038E+03 -0.59482312905E+03  0.63907441569E+03  0.17412979272E+03 0.  0.
        -24    2    3    3    0    0  0.37449886924E+02 -0.27799421836E+02 -0.18380349901E+03  0.20620027839E+03  0.80990904876E+02 0.  0.
          6    2    1    2  502    0  0.82313401723E+01  0.15560403038E+03 -0.76930468642E+02  0.24276762868E+03  0.16952125324E+03 0.  0.
         24    2    5    5    0    0 -0.58840120582E+02  0.13700139895E+03 -0.62241891174E+02  0.17147609306E+03  0.57432171894E+02 0.  0.
          2    1    6    6  501    0 -0.31419402525E+02  0.12090404601E+03 -0.35330715308E+02  0.12981997782E+03  0.00000000000E+00 0. -1.
         -1    1    6    6    0  501 -0.27420718057E+02  0.16097352947E+02 -0.26911175867E+02  0.41656115243E+02  0.00000000000E+00 0.  1.
          5    1    5    5  502    0  0.67071460754E+02  0.18602631428E+02 -0.14688577468E+02  0.71291535625E+02  0.47000000000E+01 0. -1.
         11    1    4    4    0    0 -0.21146438268E+02 -0.23360617905E+02 -0.40485935188E+02  0.51303033715E+02  0.00000000000E+00 0. -1.
        -12    1    4    4    0    0  0.58596325192E+02 -0.44388039317E+01 -0.14331756383E+03  0.15489724467E+03  0.00000000000E+00 0.  1.
         -5    1    3    3    0  504 -0.45681227096E+02 -0.12780460855E+03 -0.41101963004E+03  0.43287413731E+03  0.47000000000E+01 0.  1.
<mgrwt>
<rscale>  2 0.23281160E+03</rscale>
<asrwt>0</asrwt>
<pdfrwt beam="1">  1       21 0.16160649E-01 0.23366975E+03</pdfrwt>
<pdfrwt beam="2">  1       21 0.11950736E+00 0.23366975E+03</pdfrwt>
<totfact> 0.17811236E+04</totfact>
</mgrwt>
</event>
<event>
12    1  0.2791583E-001  0.1985866E+03  0.7546771E-02  0.1151913E+00
         21   -1    0    0  502  503  0.00000000000E+00  0.00000000000E+00  0.90307506861E+02  0.90307506861E+02  0.00000000000E+00 0. -1.
         21   -1    0    0  503  504 -0.00000000000E+00 -0.00000000000E+00 -0.69758749429E+03  0.69758749429E+03  0.00000000000E+00 0.  1.
         -6    2    1    2    0  504  0.75007776199E+02 -0.45349073321E+02 -0.54693520722E+03  0.58034231778E+03  0.17313688216E+03 0.  0.
        -24    2    3    3    0    0 -0.19439141832E+02  0.15432838883E+02 -0.24526189679E+03  0.25840515403E+03  0.77484016800E+02 0.  0.
          6    2    1    2  502    0 -0.75007776199E+02  0.45349073321E+02 -0.60344780201E+02  0.20755268337E+03  0.17819629327E+03 0.  0.
         24    2    5    5    0    0 -0.27972878179E+01 -0.28369483267E+02 -0.60593195374E+02  0.10425248043E+03  0.79902390136E+02 0.  0.
          2    1    6    6  501    0 -0.80480644155E+01 -0.20701721627E+02  0.15824525141E+02  0.27271747563E+02  0.00000000000E+00 0. -1.
         -1    1    6    6    0  501  0.52507765975E+01 -0.76677616397E+01 -0.76417720516E+02  0.76980732864E+02  0.00000000000E+00 0.  1.
          5    1    5    5  502    0 -0.72210488381E+02  0.73718556588E+02  0.24841517309E+00  0.10330020294E+03  0.47000000000E+01 0. -1.
         11    1    4    4    0    0  0.21728849333E+02  0.20026717565E+02 -0.16951645674E+03  0.17207277941E+03  0.00000000000E+00 0. -1.
        -12    1    4    4    0    0 -0.41167991165E+02 -0.45938786819E+01 -0.75745440052E+02  0.86332374614E+02  0.00000000000E+00 0.  1.
         -5    1    3    3    0  504  0.94446918031E+02 -0.60781912204E+02 -0.30167331043E+03  0.32193716375E+03  0.47000000000E+01 0.  1.
<mgrwt>
<rscale>  2 0.19744499E+03</rscale>
<asrwt>0</asrwt>
<pdfrwt beam="1">  1       21 0.13893463E-01 0.19858657E+03</pdfrwt>
<pdfrwt beam="2">  1       21 0.10732115E+00 0.19858657E+03</pdfrwt>
<totfact> 0.31144088E+04</totfact>
</mgrwt>
</event>
<event>
12    1  0.2791583E-001  0.1769618E+03  0.7546771E-02  0.1170977E+00
         21   -1    0    0  502  503  0.00000000000E+00  0.00000000000E+00  0.37719690247E+03  0.37719690247E+03  0.00000000000E+00 0.  1.
         21   -1    0    0  503  504 -0.00000000000E+00 -0.00000000000E+00 -0.10812360485E+03  0.10812360485E+03  0.00000000000E+00 0.  1.
         -6    2    1    2    0  504 -0.22023791370E+02  0.26553750009E+02  0.16501323433E+02  0.17692454337E+03  0.17274215278E+03 0.  0.
        -24    2    3    3    0    0 -0.40787202692E+02 -0.25121225123E+02  0.55869852850E+02  0.10914298417E+03  0.80598254827E+02 0.  0.
          6    2    1    2  502    0  0.22023791370E+02 -0.26553750009E+02  0.25257197419E+03  0.30839596396E+03  0.17356646973E+03 0.  0.
         24    2    5    5    0    0 -0.29773494347E+02 -0.31735525122E+02  0.23609324550E+03  0.25359224054E+03  0.81703117264E+02 0.  0.
          2    1    6    6  501    0 -0.18913391858E+00  0.22269839154E+02  0.24001443497E+02  0.32742186816E+02  0.00000000000E+00 0. -1.
         -1    1    6    6    0  501 -0.29584360429E+02 -0.54005364276E+02  0.21209180200E+03  0.22085005372E+03  0.00000000000E+00 0.  1.
          5    1    5    5  502    0  0.51797285718E+02  0.51817751137E+01  0.16478728684E+02  0.54803723415E+02  0.47000000000E+01 0. -1.
         13    1    4    4    0    0 -0.57852825709E+02  0.60918681349E+01  0.35534177624E+02  0.68166986726E+02  0.00000000000E+00 0. -1.
        -14    1    4    4    0    0  0.17065623017E+02 -0.31213093258E+02  0.20335675225E+02  0.40975997445E+02  0.00000000000E+00 0.  1.
         -5    1    3    3    0  504  0.18763411321E+02  0.51674975132E+02 -0.39368529417E+02  0.67781559201E+02  0.47000000000E+01 0.  1.
<mgrwt>
<rscale>  2 0.17675932E+03</rscale>
<asrwt>0</asrwt>
<pdfrwt beam="1">  1       21 0.58030292E-01 0.17696177E+03</pdfrwt>
<pdfrwt beam="2">  1       21 0.16634401E-01 0.17696177E+03</pdfrwt>
<totfact> 0.90931406E+04</totfact>
</mgrwt>
</event>
<event>
12    1  0.2791583E-001  0.1815905E+03  0.7546771E-02  0.1166574E+00
         21   -1    0    0  502  503  0.00000000000E+00  0.00000000000E+00  0.13373199179E+03  0.13373199179E+03  0.00000000000E+00 0.  1.
         21   -1    0    0  503  504 -0.00000000000E+00 -0.00000000000E+00 -0.26223478886E+03  0.26223478886E+03  0.00000000000E+00 0.  1.
         -6    2    1    2    0  504  0.53080500508E+02 -0.19076129416E+02 -0.11539699976E+03  0.21515480260E+03  0.17260846817E+03 0.  0.
        -24    2    3    3    0    0  0.43182791965E+02 -0.26085977879E+02 -0.15039751420E+03  0.17781543168E+03  0.80334822466E+02 0.  0.
          6    2    1    2  502    0 -0.53080500508E+02  0.19076129416E+02 -0.13105797316E+02  0.18081197805E+03  0.17128856131E+03 0.  0.
         24    2    5    5    0    0 -0.60639296250E+02 -0.38049045782E+02 -0.42667922410E+02  0.11587793248E+03  0.80512666695E+02 0.  0.
          2    1    6    6  501    0 -0.43067869535E+02 -0.63548499079E+02 -0.30686451110E+02  0.82673522987E+02  0.00000000000E+00 0. -1.
         -1    1    6    6    0  501 -0.17571426715E+02  0.25499453296E+02 -0.11981471300E+02  0.33204409492E+02  0.00000000000E+00 0.  1.
          5    1    5    5  502    0  0.75587957416E+01  0.57125175198E+02  0.29562125094E+02  0.64934045573E+02  0.47000000000E+01 0. -1.
         13    1    4    4    0    0  0.31589359259E+02  0.21317042078E+02 -0.10284287647E+03  0.10967662076E+03  0.00000000000E+00 0. -1.
        -14    1    4    4    0    0  0.11593432705E+02 -0.47403019957E+02 -0.47554637731E+02  0.68138810913E+02  0.00000000000E+00 0.  1.
         -5    1    3    3    0  504  0.98977085435E+01  0.70098484629E+01  0.35000514444E+02  0.37339370927E+02  0.47000000000E+01 0.  1.
<mgrwt>
<rscale>  2 0.18127618E+03</rscale>
<asrwt>0</asrwt>
<pdfrwt beam="1">  1       21 0.20574152E-01 0.18159053E+03</pdfrwt>
<pdfrwt beam="2">  1       21 0.40343814E-01 0.18159053E+03</pdfrwt>
<totfact> 0.13009902E+05</totfact>
</mgrwt>
</event>
<event>
12    1  0.2791583E-001  0.1801660E+03  0.7546771E-02  0.1167738E+00
         21   -1    0    0  502  503  0.00000000000E+00  0.00000000000E+00  0.66895940469E+03  0.66895940469E+03  0.00000000000E+00 0. -1.
         21   -1    0    0  503  504 -0.00000000000E+00 -0.00000000000E+00 -0.12097484904E+03  0.12097484904E+03  0.00000000000E+00 0. -1.
         -6    2    1    2    0  504 -0.46896224672E+02 -0.11976598131E+02 -0.32011908271E+02  0.18259936316E+03  0.17313310014E+03 0.  0.
        -24    2    3    3    0    0  0.12178557200E+02  0.49736969396E+01  0.37744708549E+02  0.89512210732E+02  0.80091934237E+02 0.  0.
          6    2    1    2  502    0  0.46896224672E+02  0.11976598131E+02  0.57999646393E+03  0.60733489058E+03  0.17354272198E+03 0.  0.
         24    2    5    5    0    0  0.98081862896E+01  0.23903276868E+02  0.55355709541E+03  0.56001789084E+03  0.80789931386E+02 0.  0.
          4    1    6    6  501    0  0.28498113044E+02  0.24976476761E+01  0.48448350827E+03  0.48532736424E+03  0.00000000000E+00 0. -1.
         -3    1    6    6    0  501 -0.18689926755E+02  0.21405629192E+02  0.69073587139E+02  0.74690526598E+02  0.00000000000E+00 0.  1.
          5    1    5    5  502    0  0.37088038382E+02 -0.11926678738E+02  0.26439368516E+02  0.47316999739E+02  0.47000000000E+01 0. -1.
         11    1    4    4    0    0 -0.57444402336E+01  0.40628968421E+02  0.15799994165E+02  0.43969892929E+02  0.00000000000E+00 0. -1.
        -12    1    4    4    0    0  0.17922997434E+02 -0.35655271482E+02  0.21944714384E+02  0.45542317802E+02  0.00000000000E+00 0.  1.
         -5    1    3    3    0  504 -0.59074781872E+02 -0.16950295070E+02 -0.69756616820E+02  0.93087152424E+02  0.47000000000E+01 0.  1.
<mgrwt>
<rscale>  2 0.18006724E+03</rscale>
<asrwt>0</asrwt>
<pdfrwt beam="1">  1       21 0.10291683E+00 0.18016595E+03</pdfrwt>
<pdfrwt beam="2">  1       21 0.18611516E-01 0.18016595E+03</pdfrwt>
<totfact> 0.20387621E+04</totfact>
</mgrwt>
</event>
<event>
12    1  0.2791583E-001  0.1796883E+03  0.7546771E-02  0.1168271E+00
         21   -1    0    0  502  503  0.00000000000E+00  0.00000000000E+00  0.15296754447E+03  0.15296754447E+03  0.00000000000E+00 0.  1.
         21   -1    0    0  503  504 -0.00000000000E+00 -0.00000000000E+00 -0.21230170467E+03  0.21230170467E+03  0.00000000000E+00 0.  1.
         -6    2    1    2    0  504 -0.41845938169E+02  0.43465828048E+01 -0.47576733846E+02  0.18588018643E+03  0.17469379720E+03 0.  0.
        -24    2    3    3    0    0 -0.14558250889E+02 -0.29351692104E+02 -0.90807706473E+02  0.12447010092E+03  0.78570363172E+02 0.  0.
          6    2    1    2  502    0  0.41845938169E+02 -0.43465828048E+01 -0.11757426345E+02  0.17938906271E+03  0.17398914742E+03 0.  0.
         24    2    5    5    0    0  0.70859503607E+02 -0.31317500215E+02 -0.50619009406E+02  0.12369768094E+03  0.82079090424E+02 0.  0.
          4    1    6    6  501    0  0.16626985324E+02  0.20623161106E+01 -0.57269062857E+02  0.59669551274E+02  0.00000000000E+00 0. -1.
         -3    1    6    6    0  501  0.54232518284E+02 -0.33379816326E+02  0.66500534509E+01  0.64028129664E+02  0.00000000000E+00 0.  1.
          5    1    5    5  502    0 -0.29013565438E+02  0.26970917410E+02  0.38861583061E+02  0.55691381770E+02  0.47000000000E+01 0. -1.
         11    1    4    4    0    0 -0.87877352813E+01 -0.10516887683E+02  0.12952051286E+02  0.18856957614E+02  0.00000000000E+00 0. -1.
        -12    1    4    4    0    0 -0.57705156074E+01 -0.18834804420E+02 -0.10375975776E+03  0.10561314330E+03  0.00000000000E+00 0.  1.
         -5    1    3    3    0  504 -0.27287687280E+02  0.33698274909E+02  0.43230972627E+02  0.61410085517E+02  0.47000000000E+01 0.  1.
<mgrwt>
<rscale>  2 0.17951684E+03</rscale>
<asrwt>0</asrwt>
<pdfrwt beam="1">  1       21 0.23533469E-01 0.17968834E+03</pdfrwt>
<pdfrwt beam="2">  1       21 0.32661800E-01 0.17968834E+03</pdfrwt>
<totfact> 0.15394589E+05</totfact>
</mgrwt>
</event>
<event>
12    1  0.2791583E-001  0.4977594E+03  0.7546771E-02  0.1014373E+00
         21   -1    0    0  502  503  0.00000000000E+00  0.00000000000E+00  0.18797705556E+04  0.18797705556E+04  0.00000000000E+00 0.  1.
         21   -1    0    0  503  504 -0.00000000000E+00 -0.00000000000E+00 -0.13359837871E+03  0.13359837871E+03  0.00000000000E+00 0. -1.
         -6    2    1    2    0  504  0.40892443939E+03 -0.22489435960E+03  0.99060693847E+03  0.11085798759E+04  0.17277315966E+03 0.  0.
        -24    2    3    3    0    0  0.37530500341E+03 -0.24451733159E+03  0.94136463251E+03  0.10456336910E+04  0.80869483423E+02 0.  0.
          6    2    1    2  502    0 -0.40892443939E+03  0.22489435960E+03  0.75556523838E+03  0.90478905832E+03  0.17311193055E+03 0.  0.
         24    2    5    5    0    0 -0.41393390957E+03  0.22722751294E+03  0.75841486292E+03  0.89699490948E+03  0.80206852648E+02 0.  0.
          2    1    6    6  501    0 -0.19380034457E+03  0.14614025817E+03  0.34847975237E+03  0.42468068761E+03  0.00000000000E+00 0. -1.
         -1    1    6    6    0  501 -0.22013356500E+03  0.81087254767E+02  0.40993511055E+03  0.47231422188E+03  0.00000000000E+00 0.  1.
          5    1    5    5  502    0  0.50094701846E+01 -0.23331533362E+01 -0.28496245432E+01  0.77941488347E+01  0.47000000000E+01 0. -1.
         13    1    4    4    0    0  0.10205676916E+03 -0.97045614977E+02  0.23383977505E+03  0.27297339781E+03  0.00000000000E+00 0. -1.
        -14    1    4    4    0    0  0.27324823425E+03 -0.14747171661E+03  0.70752485746E+03  0.77266029317E+03  0.00000000000E+00 0.  1.
         -5    1    3    3    0  504  0.33619435976E+02  0.19622971987E+02  0.49242305963E+02  0.62946184964E+02  0.47000000000E+01 0.  1.
<mgrwt>
<rscale>  2 0.49772996E+03</rscale>
<asrwt>0</asrwt>
<pdfrwt beam="1">  1       21 0.28919545E+00 0.49775939E+03</pdfrwt>
<pdfrwt beam="2">  1       21 0.20553598E-01 0.49775939E+03</pdfrwt>
<totfact> 0.67838813E+02</totfact>
</mgrwt>
</event>
<event>
12    1  0.2791583E-001  0.2188288E+03  0.7546771E-02  0.1134850E+00
         21   -1    0    0  502  503  0.00000000000E+00  0.00000000000E+00  0.19666135442E+03  0.19666135442E+03  0.00000000000E+00 0.  1.
         21   -1    0    0  503  504 -0.00000000000E+00 -0.00000000000E+00 -0.25901553095E+03  0.25901553095E+03  0.00000000000E+00 0. -1.
         -6    2    1    2    0  504 -0.13213072958E+03  0.24397133783E+02  0.25584444592E+02  0.21983954633E+03  0.17210785134E+03 0.  0.
        -24    2    3    3    0    0 -0.10429153949E+03  0.46817316035E+02  0.74480635907E+02  0.15908913397E+03  0.81813208792E+02 0.  0.
          6    2    1    2  502    0  0.13213072958E+03 -0.24397133783E+02 -0.87938621122E+02  0.23583733904E+03  0.17272029286E+03 0.  0.
         24    2    5    5    0    0  0.11605292709E+03 -0.35121944398E+02 -0.12516741613E+03  0.19362844812E+03  0.84399413479E+02 0.  0.
          2    1    6    6  501    0  0.89554904273E+02 -0.37069846058E+01 -0.12336819002E+03  0.15249109129E+03  0.00000000000E+00 0. -1.
         -1    1    6    6    0  501  0.26498022813E+02 -0.31414959792E+02 -0.17992261060E+01  0.41137356822E+02  0.00000000000E+00 0.  1.
          5    1    5    5  502    0  0.16077802494E+02  0.10724810615E+02  0.37228795007E+02  0.42208890929E+02  0.47000000000E+01 0. -1.
         13    1    4    4    0    0 -0.83592102045E+02  0.52087162679E+02  0.19906283412E+02  0.10048369101E+03  0.00000000000E+00 0. -1.
        -14    1    4    4    0    0 -0.20699437447E+02 -0.52698466447E+01  0.54574352495E+02  0.58605442960E+02  0.00000000000E+00 0.  1.
         -5    1    3    3    0  504 -0.27839190088E+02 -0.22420182252E+02 -0.48896191315E+02  0.60750412361E+02  0.47000000000E+01 0.  1.
<mgrwt>
<rscale>  2 0.21870794E+03</rscale>
<asrwt>0</asrwt>
<pdfrwt beam="1">  1       21 0.30255593E-01 0.21882881E+03</pdfrwt>
<pdfrwt beam="2">  1       21 0.39848543E-01 0.21882881E+03</pdfrwt>
<totfact> 0.62880094E+04</totfact>
</mgrwt>
</event>
<event>
12    1  0.2791583E-001  0.1826910E+03  0.7546771E-02  0.1166194E+00
         21   -1    0    0  502  503  0.00000000000E+00  0.00000000000E+00  0.68276565721E+03  0.68276565721E+03  0.00000000000E+00 0. -1.
         21   -1    0    0  503  504 -0.00000000000E+00 -0.00000000000E+00 -0.95875481082E+02  0.95875481082E+02  0.00000000000E+00 0. -1.
         -6    2    1    2    0  504 -0.44561045017E+02  0.16141928929E+02  0.19428503512E+02  0.18372118988E+03  0.17643627819E+03 0.  0.
        -24    2    3    3    0    0 -0.38862400765E+02  0.69354090341E+02 -0.24211280241E+02  0.11450753954E+03  0.78775087936E+02 0.  0.
          6    2    1    2  502    0  0.44561045017E+02 -0.16141928929E+02  0.56746167262E+03  0.59491994841E+03  0.17225198554E+03 0.  0.
         24    2    5    5    0    0  0.12984101494E+01 -0.34900887386E+02  0.14474666175E+03  0.16955701571E+03  0.81106273994E+02 0.  0.
          2    1    6    6  501    0  0.19626173983E+02 -0.42052930749E+02  0.14236705563E+03  0.14973982175E+03  0.00000000000E+00 0. -1.
         -1    1    6    6    0  501 -0.18327763834E+02  0.71520433628E+01  0.23796061248E+01  0.19817193967E+02  0.00000000000E+00 0.  1.
          5    1    5    5  502    0  0.43262634868E+02  0.18758958458E+02  0.42271501087E+03  0.42536293270E+03  0.47000000000E+01 0. -1.
         11    1    4    4    0    0 -0.21138521713E+02  0.16100748643E+02  0.27465173626E+02  0.38215271416E+02  0.00000000000E+00 0. -1.
        -12    1    4    4    0    0 -0.17723879052E+02  0.53253341698E+02 -0.51676453867E+02  0.76292268120E+02  0.00000000000E+00 0.  1.
         -5    1    3    3    0  504 -0.56986442519E+01 -0.53212161412E+02  0.43639783753E+02  0.69213650348E+02  0.47000000000E+01 0.  1.
<mgrwt>
<rscale>  2 0.18167311E+03</rscale>
<asrwt>0</asrwt>
<pdfrwt beam="1">  1       21 0.10504087E+00 0.18269102E+03</pdfrwt>
<pdfrwt beam="2">  1       21 0.14750074E-01 0.18269102E+03</pdfrwt>
<totfact> 0.29690759E+04</totfact>
</mgrwt>
</event>
<event>
12    1  0.2791583E-001  0.2035295E+03  0.7546771E-02  0.1147005E+00
         21   -1    0    0  502  503  0.00000000000E+00  0.00000000000E+00  0.22974887493E+03  0.22974887493E+03  0.00000000000E+00 0. -1.
         21   -1    0    0  503  504 -0.00000000000E+00 -0.00000000000E+00 -0.20027721479E+03  0.20027721479E+03  0.00000000000E+00 0.  1.
         -6    2    1    2    0  504  0.47123330670E+02  0.96494667225E+02  0.84186636779E+02  0.22025356351E+03  0.17289422584E+03 0.  0.
        -24    2    3    3    0    0  0.31685548886E+02  0.12431763466E+03  0.25104829818E+02  0.15298401217E+03  0.79467019608E+02 0.  0.
          6    2    1    2  502    0 -0.47123330670E+02 -0.96494667225E+02 -0.54714976645E+02  0.20977252621E+03  0.17169436504E+03 0.  0.
         24    2    5    5    0    0 -0.58108185194E+02 -0.83096813064E+02  0.21591531154E+02  0.13138284157E+03  0.80706971909E+02 0.  0.
          4    1    6    6  501    0 -0.24139683739E+02  0.13196457267E+01  0.31657881278E+02  0.39833242937E+02  0.00000000000E+00 0. -1.
         -3    1    6    6    0  501 -0.33968501455E+02 -0.84416458791E+02 -0.10066350124E+02  0.91549598637E+02  0.00000000000E+00 0.  1.
          5    1    5    5  502    0  0.10984854524E+02 -0.13397854160E+02 -0.76306507800E+02  0.78389684638E+02  0.47000000000E+01 0. -1.
         11    1    4    4    0    0 -0.41642260361E+01  0.90153905047E+02  0.43461707807E+02  0.10016979295E+03  0.00000000000E+00 0. -1.
        -12    1    4    4    0    0  0.35849774922E+02  0.34163729610E+02 -0.18356877990E+02  0.52814219225E+02  0.00000000000E+00 0.  1.
         -5    1    3    3    0  504  0.15437781784E+02 -0.27822967433E+02  0.59081806961E+02  0.67269551336E+02  0.47000000000E+01 0.  1.
<mgrwt>
<rscale>  2 0.20327442E+03</rscale>
<asrwt>0</asrwt>
<pdfrwt beam="1">  1       21 0.35345981E-01 0.20352946E+03</pdfrwt>
<pdfrwt beam="2">  1       21 0.30811879E-01 0.20352946E+03</pdfrwt>
<totfact> 0.77691863E+04</totfact>
</mgrwt>
</event>
<event>
12    1  0.2791583E-001  0.1795395E+03  0.7546771E-02  0.1169265E+00
         21   -1    0    0  502  503  0.00000000000E+00  0.00000000000E+00  0.12194813258E+03  0.12194813258E+03  0.00000000000E+00 0.  1.
         21   -1    0    0  503  504 -0.00000000000E+00 -0.00000000000E+00 -0.49507778953E+03  0.49507778953E+03  0.00000000000E+00 0.  1.
         -6    2    1    2    0  504 -0.30353613819E+02 -0.37426292176E+02 -0.39879038301E+03  0.43566189996E+03  0.16865779637E+03 0.  0.
        -24    2    3    3    0    0 -0.29581971915E+02 -0.16266816815E+02 -0.40379096280E+03  0.41340398839E+03  0.81951287891E+02 0.  0.
          6    2    1    2  502    0  0.30353613819E+02  0.37426292176E+02  0.25660726057E+02  0.18136402216E+03  0.17295191949E+03 0.  0.
         24    2    5    5    0    0 -0.45115142739E+02  0.17466921789E+02  0.38183068200E+02  0.10216295692E+03  0.81479160572E+02 0.  0.
          4    1    6    6  501    0  0.52192664058E+01  0.38568736074E+02  0.24167854793E+02  0.45813462535E+02  0.00000000000E+00 0. -1.
         -3    1    6    6    0  501 -0.50334409145E+02 -0.21101814285E+02  0.14015213407E+02  0.56349494381E+02  0.00000000000E+00 0.  1.
          5    1    5    5  502    0  0.75468756558E+02  0.19959370388E+02 -0.12522342143E+02  0.79201065242E+02  0.47000000000E+01 0. -1.
         11    1    4    4    0    0 -0.17079656722E+02  0.18714901245E+02 -0.37639437400E+02  0.45372783143E+02  0.00000000000E+00 0. -1.
        -12    1    4    4    0    0 -0.12502315194E+02 -0.34981718060E+02 -0.36615152540E+03  0.36803120525E+03  0.00000000000E+00 0.  1.
         -5    1    3    3    0  504 -0.77164190371E+00 -0.21159475362E+02  0.50005797960E+01  0.22257911562E+02  0.47000000000E+01 0.  1.
<mgrwt>
<rscale>  2 0.17849728E+03</rscale>
<asrwt>0</asrwt>
<pdfrwt beam="1">  1       21 0.18761251E-01 0.17953951E+03</pdfrwt>
<pdfrwt beam="2">  1       21 0.76165814E-01 0.17953951E+03</pdfrwt>
<totfact> 0.40208365E+04</totfact>
</mgrwt>
</event>
<event>
12    1  0.2791583E-001  0.1943631E+03  0.7546771E-02  0.1154989E+00
         21   -1    0    0  502  503  0.00000000000E+00  0.00000000000E+00  0.97263912741E+02  0.97263912741E+02  0.00000000000E+00 0. -1.
         21   -1    0    0  503  504 -0.00000000000E+00 -0.00000000000E+00 -0.41443889710E+03  0.41443889710E+03  0.00000000000E+00 0. -1.
         -6    2    1    2    0  504  0.68779318727E+02 -0.48329066463E+02 -0.22639150829E+03  0.29718321434E+03  0.17320061925E+03 0.  0.
        -24    2    3    3    0    0  0.64365929676E+02 -0.77893923865E+01 -0.23299340976E+03  0.25560655887E+03  0.82735339537E+02 0.  0.
          6    2    1    2  502    0 -0.68779318727E+02  0.48329066463E+02 -0.90783476068E+02  0.21451959550E+03  0.17524475449E+03 0.  0.
         24    2    5    5    0    0  0.11379113203E+02 -0.69750567896E+01 -0.84090007050E+02  0.11679133559E+03  0.79943424672E+02 0.  0.
          4    1    6    6  501    0  0.33906267472E+02 -0.24172618490E+01 -0.49125132453E+01  0.34345464258E+02  0.00000000000E+00 0. -1.
         -3    1    6    6    0  501 -0.22527154269E+02 -0.45577949406E+01 -0.79177493804E+02  0.82445871330E+02  0.00000000000E+00 0.  1.
          5    1    5    5  502    0 -0.80158431930E+02  0.55304123252E+02 -0.66934690182E+01  0.97728259913E+02  0.47000000000E+01 0. -1.
         11    1    4    4    0    0  0.77133496073E+02 -0.17605097439E+02 -0.13644048656E+03  0.15771975794E+03  0.00000000000E+00 0. -1.
        -12    1    4    4    0    0 -0.12767566396E+02  0.98157050526E+01 -0.96552923202E+02  0.97886800930E+02  0.00000000000E+00 0.  1.
         -5    1    3    3    0  504  0.44133890508E+01 -0.40539674076E+02  0.66019014690E+01  0.41576655471E+02  0.47000000000E+01 0.  1.
<mgrwt>
<rscale>  2 0.19390120E+03</rscale>
<asrwt>0</asrwt>
<pdfrwt beam="1">  1       21 0.14963679E-01 0.19436311E+03</pdfrwt>
<pdfrwt beam="2">  1       21 0.63759831E-01 0.19436311E+03</pdfrwt>
<totfact> 0.89487119E+04</totfact>
</mgrwt>
</event>
<event>
12    1  0.2791583E-001  0.1881044E+03  0.7546771E-02  0.1160629E+00
         21   -1    0    0  502  503  0.00000000000E+00  0.00000000000E+00  0.26677464537E+03  0.26677464537E+03  0.00000000000E+00 0. -1.
         21   -1    0    0  503  504 -0.00000000000E+00 -0.00000000000E+00 -0.13513586678E+03  0.13513586678E+03  0.00000000000E+00 0. -1.
         -6    2    1    2    0  504  0.68331507388E+02  0.62859819473E+01  0.32143155162E+02  0.19083098795E+03  0.17514158577E+03 0.  0.
        -24    2    3    3    0    0  0.77392321570E+02 -0.51500114175E+02  0.43347304276E+02  0.13109026301E+03  0.81632316334E+02 0.  0.
          6    2    1    2  502    0 -0.68331507388E+02 -0.62859819473E+01  0.99495623430E+02  0.21107952420E+03  0.17305050703E+03 0.  0.
         24    2    5    5    0    0 -0.68483578884E+02  0.30170002916E+02  0.12482308993E+03  0.16644061160E+03  0.80755456518E+02 0.  0.
          4    1    6    6  501    0 -0.72531165154E+02  0.33438781016E+02  0.56292168942E+02  0.97712487834E+02  0.00000000000E+00 0. -1.
         -3    1    6    6    0  501  0.40475862699E+01 -0.32687781005E+01  0.68530920992E+02  0.68728123769E+02  0.00000000000E+00 0.  1.
          5    1    5    5  502    0  0.15207149613E+00 -0.36455984863E+02 -0.25327466504E+02  0.44638912594E+02  0.47000000000E+01 0. -1.
         11    1    4    4    0    0  0.62585582466E+02 -0.59628716987E+01  0.53017330197E+02  0.82239578506E+02  0.00000000000E+00 0. -1.
        -12    1    4    4    0    0  0.14806739104E+02 -0.45537242477E+02 -0.96700259210E+01  0.48850684505E+02  0.00000000000E+00 0.  1.
         -5    1    3    3    0  504 -0.90608141829E+01  0.57786096123E+02 -0.11204149114E+02  0.59740724938E+02  0.47000000000E+01 0.  1.
<mgrwt>
<rscale>  2 0.18761620E+03</rscale>
<asrwt>0</asrwt>
<pdfrwt beam="1">  1       21 0.41042253E-01 0.18810445E+03</pdfrwt>
<pdfrwt beam="2">  1       21 0.20790133E-01 0.18810445E+03</pdfrwt>
<totfact> 0.12295191E+05</totfact>
</mgrwt>
</event>
<event>
12    1  0.2791583E-001  0.1910813E+03  0.7546771E-02  0.1157498E+00
         21   -1    0    0  502  503  0.00000000000E+00  0.00000000000E+00  0.59451654622E+03  0.59451654622E+03  0.00000000000E+00 0.  1.
         21   -1    0    0  503  504 -0.00000000000E+00 -0.00000000000E+00 -0.93941082741E+02  0.93941082741E+02  0.00000000000E+00 0.  1.
         -6    2    1    2    0  504  0.65659604746E+02  0.45487474530E+02  0.47679789627E+02  0.19690238924E+03  0.17354219809E+03 0.  0.
        -24    2    3    3    0    0  0.32050360380E+02  0.63487712996E+02  0.91411652980E+02  0.13869452239E+03  0.76303112241E+02 0.  0.
          6    2    1    2  502    0 -0.65659604746E+02 -0.45487474530E+02  0.45289567385E+03  0.49155523972E+03  0.17358504620E+03 0.  0.
         24    2    5    5    0    0 -0.10274467864E+03  0.23045197431E+01  0.32565771462E+03  0.35059082686E+03  0.79367505859E+02 0.  0.
          2    1    6    6  501    0 -0.73884711971E+01  0.27313973161E+02  0.10806929372E+03  0.11171219666E+03  0.00000000000E+00 0. -1.
         -1    1    6    6    0  501 -0.95356207444E+02 -0.25009453418E+02  0.21758842090E+03  0.23887863020E+03  0.00000000000E+00 0.  1.
          5    1    5    5  502    0  0.37085073895E+02 -0.47791994274E+02  0.12723795923E+03  0.14096441286E+03  0.47000000000E+01 0. -1.
         13    1    4    4    0    0 -0.22609771515E+02  0.37487832530E+02  0.38129552946E+02  0.58055164831E+02  0.00000000000E+00 0. -1.
        -14    1    4    4    0    0  0.54660131894E+02  0.25999880466E+02  0.53282100035E+02  0.80639357556E+02  0.00000000000E+00 0.  1.
         -5    1    3    3    0  504  0.33609244366E+02 -0.18000238466E+02 -0.43731863353E+02  0.58207866857E+02  0.47000000000E+01 0.  1.
<mgrwt>
<rscale>  2 0.19107157E+03</rscale>
<asrwt>0</asrwt>
<pdfrwt beam="1">  1       21 0.91464082E-01 0.19108130E+03</pdfrwt>
<pdfrwt beam="2">  1       21 0.14452475E-01 0.19108130E+03</pdfrwt>
<totfact> 0.42511648E+04</totfact>
</mgrwt>
</event>
<event>
12    1  0.2791583E-001  0.2246985E+03  0.7546771E-02  0.1130961E+00
         21   -1    0    0  502  503  0.00000000000E+00  0.00000000000E+00  0.21962136030E+03  0.21962136030E+03  0.00000000000E+00 0. -1.
         21   -1    0    0  503  504 -0.00000000000E+00 -0.00000000000E+00 -0.26166626757E+03  0.26166626757E+03  0.00000000000E+00 0. -1.
         -6    2    1    2    0  504 -0.44216187238E+02  0.13316212540E+03 -0.10859489462E+03  0.24694108848E+03  0.17175513729E+03 0.  0.
        -24    2    3    3    0    0 -0.24389129545E+02  0.41184629773E+02  0.11591924819E+02  0.94232432909E+02  0.80339126964E+02 0.  0.
          6    2    1    2  502    0  0.44216187238E+02 -0.13316212540E+03  0.66549987349E+02  0.23434653939E+03  0.17550548952E+03 0.  0.
         24    2    5    5    0    0  0.31405267887E+01 -0.69614252857E+02  0.10339251334E+03  0.15005535534E+03  0.83490063730E+02 0.  0.
          2    1    6    6  501    0  0.31017697187E+02 -0.73044227469E+02  0.85997730535E+02  0.11701780361E+03  0.00000000000E+00 0. -1.
         -1    1    6    6    0  501 -0.27877170398E+02  0.34299746115E+01  0.17394782809E+02  0.33037551728E+02  0.00000000000E+00 0.  1.
          5    1    5    5  502    0  0.41075660450E+02 -0.63547872545E+02 -0.36842525995E+02  0.84291184047E+02  0.47000000000E+01 0. -1.
         11    1    4    4    0    0 -0.47138555584E+02  0.82111717340E+01 -0.97659218329E+01  0.48834823569E+02  0.00000000000E+00 0. -1.
        -12    1    4    4    0    0  0.22749426039E+02  0.32973458039E+02  0.21357846652E+02  0.45397609340E+02  0.00000000000E+00 0.  1.
         -5    1    3    3    0  504 -0.19827057694E+02  0.91977495629E+02 -0.12018681944E+03  0.15270865557E+03  0.47000000000E+01 0.  1.
<mgrwt>
<rscale>  2 0.22396566E+03</rscale>
<asrwt>0</asrwt>
<pdfrwt beam="1">  1       21 0.33787902E-01 0.22469846E+03</pdfrwt>
<pdfrwt beam="2">  1       21 0.40256349E-01 0.22469846E+03</pdfrwt>
<totfact> 0.49426743E+04</totfact>
</mgrwt>
</event>
<event>
12    1  0.2791583E-001  0.1794063E+03  0.7546771E-02  0.1169158E+00
         21   -1    0    0  502  503  0.00000000000E+00  0.00000000000E+00  0.19026218578E+03  0.19026218578E+03  0.00000000000E+00 0. -1.
         21   -1    0    0  503  504 -0.00000000000E+00 -0.00000000000E+00 -0.20306910990E+03  0.20306910990E+03  0.00000000000E+00 0.  1.
         -6    2    1    2    0  504  0.71412941108E+01  0.46513234620E+02 -0.90166611116E+02  0.19795689444E+03  0.16983060743E+03 0.  0.
        -24    2    3    3    0    0  0.81687329072E+01  0.73784960946E+02 -0.53425721376E+01  0.10872679707E+03  0.79259224481E+02 0.  0.
          6    2    1    2  502    0 -0.71412941108E+01 -0.46513234620E+02  0.77359686999E+02  0.19537440124E+03  0.17312468458E+03 0.  0.
         24    2    5    5    0    0  0.41500259754E+02 -0.71243721420E+02  0.80689946927E+02  0.14050384109E+03  0.80203007583E+02 0.  0.
          4    1    6    6  501    0  0.40474982509E+02 -0.59913069737E+02  0.96774781921E+02  0.12080214630E+03  0.00000000000E+00 0. -1.
         -3    1    6    6    0  501  0.10252772452E+01 -0.11330651683E+02 -0.16084834994E+02  0.19701694795E+02  0.00000000000E+00 0.  1.
          5    1    5    5  502    0 -0.48641553865E+02  0.24730486800E+02 -0.33302599276E+01  0.54870560148E+02  0.47000000000E+01 0. -1.
         13    1    4    4    0    0  0.20297069409E+02  0.87692991187E+02 -0.24235890376E+01  0.90043908810E+02  0.00000000000E+00 0. -1.
        -14    1    4    4    0    0 -0.12128336502E+02 -0.13908030241E+02 -0.29189831000E+01  0.18682888262E+02  0.00000000000E+00 0.  1.
         -5    1    3    3    0  504 -0.10274387965E+01 -0.27271726327E+02 -0.84824038978E+02  0.89230097366E+02  0.47000000000E+01 0.  1.
<mgrwt>
<rscale>  2 0.17860686E+03</rscale>
<asrwt>0</asrwt>
<pdfrwt beam="1">  1       21 0.29271106E-01 0.17940634E+03</pdfrwt>
<pdfrwt beam="2">  1       21 0.31241402E-01 0.17940634E+03</pdfrwt>
<totfact> 0.11058015E+05</totfact>
</mgrwt>
</event>
<event>
12    1  0.2791583E-001  0.1804876E+03  0.7546771E-02  0.1167590E+00
         21   -1    0    0  502  503  0.00000000000E+00  0.00000000000E+00  0.63602889318E+03  0.63602889318E+03  0.00000000000E+00 0. -1.
         21   -1    0    0  503  504 -0.00000000000E+00 -0.00000000000E+00 -0.16858405240E+03  0.16858405240E+03  0.00000000000E+00 0. -1.
         -6    2    1    2    0  504 -0.47137988937E+02 -0.14631741479E+02 -0.10217670722E+03  0.20740263259E+03  0.17360787611E+03 0.  0.
        -24    2    3    3    0    0 -0.27279161937E+02  0.44443636328E+01 -0.13792158379E+03  0.16203681951E+03  0.80434212595E+02 0.  0.
          6    2    1    2  502    0  0.47137988937E+02  0.14631741479E+02  0.56962154800E+03  0.59721031299E+03  0.17249745543E+03 0.  0.
         24    2    5    5    0    0  0.25457066975E+02 -0.55487533875E+02  0.24622625058E+03  0.26555780878E+03  0.78528050112E+02 0.  0.
          2    1    6    6  501    0  0.38089590520E+02 -0.11835318026E+02  0.18533634151E+03  0.18957966964E+03  0.00000000000E+00 0. -1.
         -1    1    6    6    0  501 -0.12632523545E+02 -0.43652215849E+02  0.60889909073E+02  0.75978139136E+02  0.00000000000E+00 0.  1.
          5    1    5    5  502    0  0.21680921962E+02  0.70119275355E+02  0.32339529742E+03  0.33165250420E+03  0.47000000000E+01 0. -1.
         13    1    4    4    0    0 -0.53492336027E+02  0.15997799917E+02 -0.81978177998E+02  0.99185590101E+02  0.00000000000E+00 0. -1.
        -14    1    4    4    0    0  0.26213174090E+02 -0.11553436284E+02 -0.55943405794E+02  0.62851229405E+02  0.00000000000E+00 0.  1.
         -5    1    3    3    0  504 -0.19858827000E+02 -0.19076105112E+02  0.35744876568E+02  0.45365813086E+02  0.47000000000E+01 0.  1.
<mgrwt>
<rscale>  2 0.18022004E+03</rscale>
<asrwt>0</asrwt>
<pdfrwt beam="1">  1       21 0.97850598E-01 0.18048760E+03</pdfrwt>
<pdfrwt beam="2">  1       21 0.25936008E-01 0.18048760E+03</pdfrwt>
<totfact> 0.12302815E+04</totfact>
</mgrwt>
</event>
<event>
12    1  0.2791583E-001  0.1737661E+03  0.7546771E-02  0.1174311E+00
         21   -1    0    0  502  503  0.00000000000E+00  0.00000000000E+00  0.61423539256E+02  0.61423539256E+02  0.00000000000E+00 0. -1.
         21   -1    0    0  503  504 -0.00000000000E+00 -0.00000000000E+00 -0.64963088189E+03  0.64963088189E+03  0.00000000000E+00 0. -1.
         -6    2    1    2    0  504 -0.26086491069E+01  0.20369288994E+01 -0.47067538116E+03  0.50127257122E+03  0.17241787058E+03 0.  0.
        -24    2    3    3    0    0  0.21131812714E+02  0.43492266786E+02 -0.42535137048E+03  0.43525355493E+03  0.78636746733E+02 0.  0.
          6    2    1    2  502    0  0.26086491069E+01 -0.20369288994E+01 -0.11753196147E+03  0.20978184993E+03  0.17373459201E+03 0.  0.
         24    2    5    5    0    0  0.22810468416E+02 -0.78508508023E+01 -0.15053165645E+03  0.17037391849E+03  0.76062731881E+02 0.  0.
          4    1    6    6  501    0 -0.38017482027E+00 -0.35561955943E+02 -0.37391401641E+02  0.51603431669E+02  0.00000000000E+00 0. -1.
         -3    1    6    6    0  501  0.23190643236E+02  0.27711105141E+02 -0.11314025481E+03  0.11877048683E+03  0.00000000000E+00 0.  1.
          5    1    5    5  502    0 -0.20201819309E+02  0.58139219029E+01  0.32999694978E+02  0.39407931435E+02  0.47000000000E+01 0. -1.
         11    1    4    4    0    0 -0.12282503946E+02  0.79714767380E+01 -0.30563310361E+03  0.30598365702E+03  0.00000000000E+00 0. -1.
        -12    1    4    4    0    0  0.33414316660E+02  0.35520790048E+02 -0.11971826687E+03  0.12926989791E+03  0.00000000000E+00 0.  1.
         -5    1    3    3    0  504 -0.23740461821E+02 -0.41455337887E+02 -0.45324010683E+02  0.66019016284E+02  0.47000000000E+01 0.  1.
<mgrwt>
<rscale>  2 0.17343606E+03</rscale>
<asrwt>0</asrwt>
<pdfrwt beam="1">  1       21 0.94497754E-02 0.17376611E+03</pdfrwt>
<pdfrwt beam="2">  1       21 0.99943211E-01 0.17376611E+03</pdfrwt>
<totfact> 0.74343048E+04</totfact>
</mgrwt>
</event>
<event>
12    1  0.2791583E-001  0.2213863E+03  0.7546771E-02  0.1133078E+00
         21   -1    0    0  502  503  0.00000000000E+00  0.00000000000E+00  0.43720457231E+03  0.43720457231E+03  0.00000000000E+00 0. -1.
         21   -1    0    0  503  504 -0.00000000000E+00 -0.00000000000E+00 -0.45128293148E+03  0.45128293148E+03  0.00000000000E+00 0. -1.
         -6    2    1    2    0  504  0.13799041223E+03 -0.21956787976E+02 -0.39252469249E+03  0.45065235088E+03  0.17172202170E+03 0.  0.
        -24    2    3    3    0    0  0.38358306720E+02 -0.58647884434E+02 -0.23666327700E+03  0.26200542182E+03  0.87899945046E+02 0.  0.
          6    2    1    2  502    0 -0.13799041223E+03  0.21956787976E+02  0.37844633332E+03  0.43783515291E+03  0.17016033472E+03 0.  0.
         24    2    5    5    0    0 -0.15711783402E+03  0.32609178736E+02  0.25079024342E+03  0.30822998718E+03  0.79753410579E+02 0.  0.
          2    1    6    6  501    0 -0.73627210447E+01  0.25529341022E+02  0.59710196605E+02  0.65354911773E+02  0.00000000000E+00 0. -1.
         -1    1    6    6    0  501 -0.14975511298E+03  0.70798377137E+01  0.19108004681E+03  0.24287507541E+03  0.00000000000E+00 0.  1.
          5    1    5    5  502    0  0.19127421793E+02 -0.10652390759E+02  0.12765608991E+03  0.12960516573E+03  0.47000000000E+01 0. -1.
         13    1    4    4    0    0  0.67008497665E+01 -0.12237832899E+02 -0.18548807607E+03  0.18601207570E+03  0.00000000000E+00 0. -1.
        -14    1    4    4    0    0  0.31657456954E+02 -0.46410051535E+02 -0.51175200929E+02  0.75993346119E+02  0.00000000000E+00 0.  1.
         -5    1    3    3    0  504  0.99632105511E+02  0.36691096457E+02 -0.15586141549E+03  0.18864692906E+03  0.47000000000E+01 0.  1.
<mgrwt>
<rscale>  2 0.22108342E+03</rscale>
<asrwt>0</asrwt>
<pdfrwt beam="1">  1       21 0.67262242E-01 0.22138633E+03</pdfrwt>
<pdfrwt beam="2">  1       21 0.69428143E-01 0.22138633E+03</pdfrwt>
<totfact> 0.37308875E+03</totfact>
</mgrwt>
</event>
<event>
12    1  0.2791583E-001  0.1902315E+03  0.7546771E-02  0.1158597E+00
         21   -1    0    0  502  503  0.00000000000E+00  0.00000000000E+00  0.99577371046E+02  0.99577371046E+02  0.00000000000E+00 0. -1.
         21   -1    0    0  503  504 -0.00000000000E+00 -0.00000000000E+00 -0.63307115157E+03  0.63307115157E+03  0.00000000000E+00 0. -1.
         -6    2    1    2    0  504  0.65047597805E+02 -0.44012073042E+02 -0.50772043304E+03  0.54218822341E+03  0.17326216821E+03 0.  0.
        -24    2    3    3    0    0  0.72110982490E+01 -0.84831820120E+02 -0.36061308951E+03  0.37886653792E+03  0.79054510233E+02 0.  0.
          6    2    1    2  502    0 -0.65047597805E+02  0.44012073042E+02 -0.25773347491E+02  0.19046029921E+03  0.17158848324E+03 0.  0.
         24    2    5    5    0    0 -0.32873585746E+02 -0.48373479023E+02 -0.11349987791E+02  0.91463427603E+02  0.69397912457E+02 0.  0.
          2    1    6    6  501    0  0.16007491335E+02 -0.30843759935E+02  0.86587557815E+01  0.35812726194E+02  0.00000000000E+00 0. -1.
         -1    1    6    6    0  501 -0.48881077081E+02 -0.17529719088E+02 -0.20008743573E+02  0.55650701408E+02  0.00000000000E+00 0.  1.
          5    1    5    5  502    0 -0.32174012059E+02  0.92385552064E+02 -0.14423359700E+02  0.98996871603E+02  0.47000000000E+01 0. -1.
         13    1    4    4    0    0  0.32145757429E+02 -0.14778747750E+02 -0.18176872819E+03  0.18517999799E+03  0.00000000000E+00 0. -1.
        -14    1    4    4    0    0 -0.24934659180E+02 -0.70053072370E+02 -0.17884436132E+03  0.19368653994E+03  0.00000000000E+00 0.  1.
         -5    1    3    3    0  504  0.57836499556E+02  0.40819747078E+02 -0.14710734352E+03  0.16332168549E+03  0.47000000000E+01 0.  1.
<mgrwt>
<rscale>  2 0.18984959E+03</rscale>
<asrwt>0</asrwt>
<pdfrwt beam="1">  1       21 0.15319595E-01 0.19023152E+03</pdfrwt>
<pdfrwt beam="2">  1       21 0.97395563E-01 0.19023152E+03</pdfrwt>
<totfact> 0.33028075E+04</totfact>
</mgrwt>
</event>
<event>
12    1  0.2791583E-001  0.2406328E+03  0.7546771E-02  0.1119755E+00
         21   -1    0    0  502  503  0.00000000000E+00  0.00000000000E+00  0.26138108266E+02  0.26138108266E+02  0.00000000000E+00 0.  1.
         21   -1    0    0  503  504 -0.00000000000E+00 -0.00000000000E+00 -0.22447773720E+04  0.22447773720E+04  0.00000000000E+00 0. -1.
         -6    2    1    2    0  504  0.94908128383E+02  0.13477234927E+03 -0.12849465842E+04  0.13072841593E+04  0.17530832812E+03 0.  0.
        -24    2    3    3    0    0  0.12493902921E+03  0.93942369412E+02 -0.11451685020E+04  0.11585261527E+04  0.79605393787E+02 0.  0.
          6    2    1    2  502    0 -0.94908128383E+02 -0.13477234927E+03 -0.93369267951E+03  0.96363132096E+03  0.17213995468E+03 0.  0.
         24    2    5    5    0    0  0.46453344811E+01 -0.15029675478E+02 -0.30544473148E+03  0.31635489307E+03  0.80848401980E+02 0.  0.
          2    1    6    6  501    0  0.35250980705E+02 -0.28335413000E+02 -0.22047935386E+03  0.22507037288E+03  0.00000000000E+00 0. -1.
         -1    1    6    6    0  501 -0.30605646224E+02  0.13305737522E+02 -0.84965377621E+02  0.91284520188E+02  0.00000000000E+00 0.  1.
          5    1    5    5  502    0 -0.99553462864E+02 -0.11974267379E+03 -0.62824794803E+03  0.64727642789E+03  0.47000000000E+01 0. -1.
         13    1    4    4    0    0  0.24698798136E+02  0.62451900419E+02 -0.55846595831E+03  0.56248955287E+03  0.00000000000E+00 0. -1.
        -14    1    4    4    0    0  0.10024023107E+03  0.31490468993E+02 -0.58670254372E+03  0.59603659986E+03  0.00000000000E+00 0.  1.
         -5    1    3    3    0  504 -0.30030900827E+02  0.40829979861E+02 -0.13977808217E+03  0.14875800656E+03  0.47000000000E+01 0.  1.
<mgrwt>
<rscale>  2 0.24005615E+03</rscale>
<asrwt>0</asrwt>
<pdfrwt beam="1">  1       21 0.40212479E-02 0.24063281E+03</pdfrwt>
<pdfrwt beam="2">  1       21 0.34535033E+00 0.24063281E+03</pdfrwt>
<totfact> 0.68604272E+03</totfact>
</mgrwt>
</event>
<event>
12    1  0.2791583E-001  0.1857920E+03  0.7546771E-02  0.1162465E+00
         21   -1    0    0  502  503  0.00000000000E+00  0.00000000000E+00  0.39283238741E+03  0.39283238741E+03  0.00000000000E+00 0.  1.
         21   -1    0    0  503  504 -0.00000000000E+00 -0.00000000000E+00 -0.88564476909E+02  0.88564476909E+02  0.00000000000E+00 0.  1.
         -6    2    1    2    0  504  0.56472305214E+02 -0.37129441037E+02  0.12624517798E+03  0.22408235241E+03  0.17235817083E+03 0.  0.
        -24    2    3    3    0    0  0.16842821256E+02 -0.74188058739E+02  0.12755200457E+03  0.16960634907E+03  0.81910018230E+02 0.  0.
          6    2    1    2  502    0 -0.56472305214E+02  0.37129441037E+02  0.17802273252E+03  0.25731451191E+03  0.17306342218E+03 0.  0.
         24    2    5    5    0    0 -0.13482068332E+02  0.76297318950E+02  0.15882942212E+03  0.19589174503E+03  0.84520668433E+02 0.  0.
          4    1    6    6  501    0  0.31334426551E+02  0.12850373686E+02  0.70843186612E+02  0.78522197374E+02  0.00000000000E+00 0. -1.
         -3    1    6    6    0  501 -0.44816494882E+02  0.63446945264E+02  0.87986235511E+02  0.11736954765E+03  0.00000000000E+00 0.  1.
          5    1    5    5  502    0 -0.42990236882E+02 -0.39167877913E+02  0.19193310401E+02  0.61422766883E+02  0.47000000000E+01 0. -1.
         13    1    4    4    0    0  0.77935869487E+01  0.15348285819E+02  0.57157246552E+01  0.18137788824E+02  0.00000000000E+00 0. -1.
        -14    1    4    4    0    0  0.90492343069E+01 -0.89536344557E+02  0.12183627991E+03  0.15146856024E+03  0.00000000000E+00 0.  1.
         -5    1    3    3    0  504  0.39629483958E+02  0.37058617701E+02 -0.13068265907E+01  0.54476003345E+02  0.47000000000E+01 0.  1.
<mgrwt>
<rscale>  2 0.18562759E+03</rscale>
<asrwt>0</asrwt>
<pdfrwt beam="1">  1       21 0.60435751E-01 0.18579199E+03</pdfrwt>
<pdfrwt beam="2">  1       21 0.13625304E-01 0.18579199E+03</pdfrwt>
<totfact> 0.11943758E+05</totfact>
</mgrwt>
</event>
<event>
12    1  0.2791583E-001  0.2149574E+03  0.7546771E-02  0.1138004E+00
         21   -1    0    0  502  503  0.00000000000E+00  0.00000000000E+00  0.11193803493E+04  0.11193803493E+04  0.00000000000E+00 0.  1.
         21   -1    0    0  503  504 -0.00000000000E+00 -0.00000000000E+00 -0.43384427508E+02  0.43384427508E+02  0.00000000000E+00 0. -1.
         -6    2    1    2    0  504  0.12362737628E+03 -0.35262815641E+02  0.40288493546E+03  0.45664314329E+03  0.17227737740E+03 0.  0.
        -24    2    3    3    0    0  0.21889747606E+02 -0.69036205227E+02  0.21938990086E+03  0.24407855391E+03  0.78722634620E+02 0.  0.
          6    2    1    2  502    0 -0.12362737628E+03  0.35262815641E+02  0.67311098633E+03  0.70612163351E+03  0.17030022626E+03 0.  0.
         24    2    5    5    0    0 -0.50800988553E+02  0.30843946494E+02  0.57585165029E+03  0.58444715960E+03  0.80257521464E+02 0.  0.
          4    1    6    6  501    0 -0.17711137399E+02  0.53976805532E+02  0.26765338398E+03  0.27361563164E+03  0.00000000000E+00 0. -1.
         -3    1    6    6    0  501 -0.33089851155E+02 -0.23132859038E+02  0.30819826631E+03  0.31083152796E+03  0.00000000000E+00 0.  1.
          5    1    5    5  502    0 -0.72826387730E+02  0.44188691470E+01  0.97259336035E+02  0.12167447391E+03  0.47000000000E+01 0. -1.
         13    1    4    4    0    0 -0.10132388968E+02 -0.58818688174E+02  0.19091115889E+03  0.20002343356E+03  0.00000000000E+00 0. -1.
        -14    1    4    4    0    0  0.32022136573E+02 -0.10217517052E+02  0.28478741964E+02  0.44055120352E+02  0.00000000000E+00 0.  1.
         -5    1    3    3    0  504  0.10173762868E+03  0.33773389585E+02  0.18349503461E+03  0.21256458938E+03  0.47000000000E+01 0.  1.
<mgrwt>
<rscale>  2 0.21456099E+03</rscale>
<asrwt>0</asrwt>
<pdfrwt beam="1">  1       21 0.17221234E+00 0.21495741E+03</pdfrwt>
<pdfrwt beam="2">  1       21 0.66745281E-02 0.21495741E+03</pdfrwt>
<totfact> 0.33336393E+04</totfact>
</mgrwt>
</event>
<event>
12    1  0.2791583E-001  0.1936202E+03  0.7546771E-02  0.1155292E+00
         21   -1    0    0  502  503  0.00000000000E+00  0.00000000000E+00  0.55621193590E+03  0.55621193590E+03  0.00000000000E+00 0.  1.
         21   -1    0    0  503  504 -0.00000000000E+00 -0.00000000000E+00 -0.25840182998E+03  0.25840182998E+03  0.00000000000E+00 0.  1.
         -6    2    1    2    0  504  0.64536132293E+02  0.58011911796E+02 -0.20133162481E+03  0.27932636840E+03  0.17308524678E+03 0.  0.
        -24    2    3    3    0    0  0.38571228251E+02  0.75865680361E+02 -0.67014831879E+02  0.14128280948E+03  0.90700074192E+02 0.  0.
          6    2    1    2  502    0 -0.64536132293E+02 -0.58011911796E+02  0.49914173074E+03  0.53528739749E+03  0.17279998919E+03 0.  0.
         24    2    5    5    0    0 -0.65440697627E+02 -0.10303111203E+03  0.41684754717E+03  0.44136205865E+03  0.78362582120E+02 0.  0.
          2    1    6    6  501    0 -0.50231043138E+02 -0.11271945573E+03  0.38968662041E+03  0.40875970388E+03  0.00000000000E+00 0. -1.
         -1    1    6    6    0  501 -0.15209654488E+02  0.96883437001E+01  0.27160926767E+02  0.32602354763E+02  0.00000000000E+00 0.  1.
          5    1    5    5  502    0  0.90456533343E+00  0.45019200233E+02  0.82294183560E+02  0.93925338839E+02  0.47000000000E+01 0. -1.
         13    1    4    4    0    0  0.69860027190E+01  0.89449429412E+02 -0.52577606660E+02  0.10399235250E+03  0.00000000000E+00 0. -1.
        -14    1    4    4    0    0  0.31585225532E+02 -0.13583749051E+02 -0.14437225220E+02  0.37290456986E+02  0.00000000000E+00 0.  1.
         -5    1    3    3    0  504  0.25964904042E+02 -0.17853768565E+02 -0.13431679293E+03  0.13804355891E+03  0.47000000000E+01 0.  1.
<mgrwt>
<rscale>  2 0.19355647E+03</rscale>
<asrwt>0</asrwt>
<pdfrwt beam="1">  1       21 0.85571067E-01 0.19362024E+03</pdfrwt>
<pdfrwt beam="2">  1       21 0.39754128E-01 0.19362024E+03</pdfrwt>
<totfact> 0.71922834E+03</totfact>
</mgrwt>
</event>
<event>
12    1  0.2791583E-001  0.2147594E+03  0.7546771E-02  0.1138231E+00
         21   -1    0    0  502  503  0.00000000000E+00  0.00000000000E+00  0.24618164159E+02  0.24618164159E+02  0.00000000000E+00 0.  1.
         21   -1    0    0  503  504 -0.00000000000E+00 -0.00000000000E+00 -0.30265077873E+04  0.30265077873E+04  0.00000000000E+00 0.  1.
         -6    2    1    2    0  504 -0.91043434919E+02  0.88822502533E+02 -0.24452926307E+04  0.24545341126E+04  0.17059694061E+03 0.  0.
        -24    2    3    3    0    0 -0.27620594084E+02  0.66143859378E+02 -0.20975155800E+04  0.21002633904E+04  0.79979956628E+02 0.  0.
          6    2    1    2  502    0  0.91043434919E+02 -0.88822502533E+02 -0.55659699249E+03  0.59659183891E+03  0.17304122691E+03 0.  0.
         24    2    5    5    0    0  0.69916633119E+02 -0.12720383879E+03 -0.38149745785E+03  0.41603324521E+03  0.80462404798E+02 0.  0.
          2    1    6    6  501    0  0.52675796916E+02 -0.13518540004E+03 -0.35431573216E+03  0.38287004325E+03  0.00000000000E+00 0. -1.
         -1    1    6    6    0  501  0.17240836204E+02  0.79815612422E+01 -0.27181725694E+02  0.33163201965E+02  0.00000000000E+00 0.  1.
          5    1    5    5  502    0  0.21126801800E+02  0.38381336261E+02 -0.17509953463E+03  0.18055859369E+03  0.47000000000E+01 0. -1.
         13    1    4    4    0    0  0.17428389396E+02 -0.31374764135E+01 -0.75443583784E+03  0.75464364168E+03  0.00000000000E+00 0. -1.
        -14    1    4    4    0    0 -0.45048983481E+02  0.69281335792E+02 -0.13430797421E+04  0.13456197487E+04  0.00000000000E+00 0.  1.
         -5    1    3    3    0  504 -0.63422840835E+02  0.22678643155E+02 -0.34777705072E+03  0.35427072219E+03  0.47000000000E+01 0.  1.
<mgrwt>
<rscale>  2 0.21426659E+03</rscale>
<asrwt>0</asrwt>
<pdfrwt beam="1">  1       21 0.37874132E-02 0.21475942E+03</pdfrwt>
<pdfrwt beam="2">  1       21 0.46561618E+00 0.21475942E+03</pdfrwt>
<totfact> 0.13591597E+03</totfact>
</mgrwt>
</event>
<event>
12    1  0.2791583E-001  0.1796640E+03  0.7546771E-02  0.1168419E+00
         21   -1    0    0  502  503  0.00000000000E+00  0.00000000000E+00  0.13056625419E+03  0.13056625419E+03  0.00000000000E+00 0.  1.
         21   -1    0    0  503  504 -0.00000000000E+00 -0.00000000000E+00 -0.60249695165E+03  0.60249695165E+03  0.00000000000E+00 0.  1.
         -6    2    1    2    0  504 -0.41952164113E+02  0.11549570179E+02 -0.51775125408E+03  0.54764830784E+03  0.17308648513E+03 0.  0.
        -24    2    3    3    0    0 -0.30704162441E+02  0.75391824241E+02 -0.37485410913E+03  0.39066412080E+03  0.74001212126E+02 0.  0.
          6    2    1    2  502    0  0.41952164113E+02 -0.11549570179E+02  0.45820556621E+02  0.18541489799E+03  0.17431518679E+03 0.  0.
         24    2    5    5    0    0  0.43807624939E+01  0.32614362496E+02  0.79661313996E+02  0.11811445202E+03  0.80760207447E+02 0.  0.
          2    1    6    6  501    0 -0.16919616679E+02 -0.15599250966E+02  0.51017412496E+00  0.23018912592E+02  0.00000000000E+00 0. -1.
         -1    1    6    6    0  501  0.21300379173E+02  0.48213613462E+02  0.79151139871E+02  0.95095539426E+02  0.00000000000E+00 0.  1.
          5    1    5    5  502    0  0.37571401619E+02 -0.44163932675E+02 -0.33840757375E+02  0.67300445977E+02  0.47000000000E+01 0. -1.
         13    1    4    4    0    0 -0.14157125252E+02  0.59661797454E+02 -0.11971104206E+03  0.13450162773E+03  0.00000000000E+00 0. -1.
        -14    1    4    4    0    0 -0.16547037189E+02  0.15730026786E+02 -0.25514306707E+03  0.25616249307E+03  0.00000000000E+00 0.  1.
         -5    1    3    3    0  504 -0.11248001672E+02 -0.63842254062E+02 -0.14289714495E+03  0.15698418704E+03  0.47000000000E+01 0.  1.
<mgrwt>
<rscale>  2 0.17936531E+03</rscale>
<asrwt>0</asrwt>
<pdfrwt beam="1">  1       21 0.20087116E-01 0.17966402E+03</pdfrwt>
<pdfrwt beam="2">  1       21 0.92691840E-01 0.17966402E+03</pdfrwt>
<totfact> 0.22638838E+04</totfact>
</mgrwt>
</event>
<event>
12    1  0.2791583E-001  0.2457690E+03  0.7546771E-02  0.1116269E+00
         21   -1    0    0  502  503  0.00000000000E+00  0.00000000000E+00  0.31224969821E+03  0.31224969821E+03  0.00000000000E+00 0.  1.
         21   -1    0    0  503  504 -0.00000000000E+00 -0.00000000000E+00 -0.34141072488E+03  0.34141072488E+03  0.00000000000E+00 0. -1.
         -6    2    1    2    0  504  0.16558748584E+03 -0.50599111487E+02 -0.23063259318E+03  0.33586616672E+03  0.17214878262E+03 0.  0.
        -24    2    3    3    0    0  0.11551744780E+03  0.43432249794E+01 -0.51338923241E+02  0.14171679349E+03  0.63912597868E+02 0.  0.
          6    2    1    2  502    0 -0.16558748584E+03  0.50599111487E+02  0.20147156651E+03  0.31779425638E+03  0.17442164924E+03 0.  0.
         24    2    5    5    0    0 -0.17206776828E+03  0.15136300927E+01  0.18028765534E+03  0.26373663308E+03  0.86277256568E+02 0.  0.
          4    1    6    6  501    0 -0.60447503715E+02 -0.35538558481E+02  0.40204050008E+02  0.80828556100E+02  0.00000000000E+00 0. -1.
         -3    1    6    6    0  501 -0.11162026457E+03  0.37052188574E+02  0.14008360534E+03  0.18290807698E+03  0.00000000000E+00 0.  1.
          5    1    5    5  502    0  0.64802824406E+01  0.49085481394E+02  0.21183911170E+02  0.54057623298E+02  0.47000000000E+01 0. -1.
         11    1    4    4    0    0  0.11464932852E+03  0.77265392947E+01 -0.61950497963E+02  0.13054513448E+03  0.00000000000E+00 0. -1.
        -12    1    4    4    0    0  0.86811928816E+00 -0.33833143153E+01  0.10611574723E+02  0.11171659006E+02  0.00000000000E+00 0.  1.
         -5    1    3    3    0  504  0.50070038037E+02 -0.54942336466E+02 -0.17929366994E+03  0.19414937323E+03  0.47000000000E+01 0.  1.
<mgrwt>
<rscale>  2 0.24536605E+03</rscale>
<asrwt>0</asrwt>
<pdfrwt beam="1">  1       21 0.48038415E-01 0.24576899E+03</pdfrwt>
<pdfrwt beam="2">  1       21 0.52524727E-01 0.24576899E+03</pdfrwt>
<totfact> 0.13792854E+04</totfact>
</mgrwt>
</event>
<event>
12    1  0.2791583E-001  0.2099793E+03  0.7546771E-02  0.1142016E+00
         21   -1    0    0  502  503  0.00000000000E+00  0.00000000000E+00  0.87891752151E+02  0.87891752151E+02  0.00000000000E+00 0.  1.
         21   -1    0    0  503  504 -0.00000000000E+00 -0.00000000000E+00 -0.49662392888E+03  0.49662392888E+03  0.00000000000E+00 0.  1.
         -6    2    1    2    0  504 -0.45812751086E+02 -0.11247874453E+03 -0.21062401818E+03  0.29741182477E+03  0.17129226586E+03 0.  0.
        -24    2    3    3    0    0 -0.88380373473E+02 -0.58845458314E+02 -0.17504127548E+03  0.22010235934E+03  0.80819070064E+02 0.  0.
          6    2    1    2  502    0  0.45812751086E+02  0.11247874453E+03 -0.19810815855E+03  0.28710385627E+03  0.16861644542E+03 0.  0.
         24    2    5    5    0    0  0.73173367380E+02  0.98809715631E+02 -0.20784090200E+03  0.25466526859E+03  0.80863198574E+02 0.  0.
          4    1    6    6  501    0  0.30206513824E+02  0.48562656932E+02 -0.16801892550E+03  0.17748556125E+03  0.00000000000E+00 0. -1.
         -3    1    6    6    0  501  0.42966853556E+02  0.50247058699E+02 -0.39821976501E+02  0.77179707339E+02  0.00000000000E+00 0.  1.
          5    1    5    5  502    0 -0.27360616294E+02  0.13669028904E+02  0.97327434558E+01  0.32438587675E+02  0.47000000000E+01 0. -1.
         11    1    4    4    0    0 -0.24124330686E+02 -0.16543497904E+02 -0.12488674188E+03  0.12826678818E+03  0.00000000000E+00 0. -1.
        -12    1    4    4    0    0 -0.64256042787E+02 -0.42301960410E+02 -0.50154533607E+02  0.91835571161E+02  0.00000000000E+00 0.  1.
         -5    1    3    3    0  504  0.42567622386E+02 -0.53633286221E+02 -0.35582742700E+02  0.77309465427E+02  0.47000000000E+01 0.  1.
<mgrwt>
<rscale>  2 0.20943293E+03</rscale>
<asrwt>0</asrwt>
<pdfrwt beam="1">  1       21 0.13521808E-01 0.20997932E+03</pdfrwt>
<pdfrwt beam="2">  1       21 0.76403680E-01 0.20997932E+03</pdfrwt>
<totfact> 0.71659816E+04</totfact>
</mgrwt>
</event>
<event>
12    1  0.2791583E-001  0.1847803E+03  0.7546771E-02  0.1164920E+00
         21   -1    0    0  502  503  0.00000000000E+00  0.00000000000E+00  0.12026613588E+04  0.12026613588E+04  0.00000000000E+00 0.  1.
         21   -1    0    0  503  504 -0.00000000000E+00 -0.00000000000E+00 -0.35081162364E+02  0.35081162364E+02  0.00000000000E+00 0.  1.
         -6    2    1    2    0  504  0.32321106538E+02  0.27324291562E+02  0.30165096872E+03  0.35374715378E+03  0.17986792665E+03 0.  0.
        -24    2    3    3    0    0 -0.46061158463E+02  0.53278929030E+02  0.17286438548E+03  0.20069325250E+03  0.73725241507E+02 0.  0.
          6    2    1    2  502    0 -0.32321106538E+02 -0.27324291562E+02  0.86592922775E+03  0.88399536743E+03  0.17269369216E+03 0.  0.
         24    2    5    5    0    0  0.24903548593E+02  0.14463131046E+02  0.27232620558E+03  0.28615969788E+03  0.83044816543E+02 0.  0.
          4    1    6    6  501    0  0.51973877910E+02  0.16527140834E+02  0.22578825302E+03  0.23228165138E+03  0.00000000000E+00 0. -1.
         -3    1    6    6    0  501 -0.27070329317E+02 -0.20640097877E+01  0.46537952560E+02  0.53878046496E+02  0.00000000000E+00 0.  1.
          5    1    5    5  502    0 -0.57224655131E+02 -0.41787422607E+02  0.59360302218E+03  0.59783566955E+03  0.47000000000E+01 0. -1.
         13    1    4    4    0    0 -0.25293562525E+02 -0.12624920624E+02  0.80661439731E+02  0.85471754314E+02  0.00000000000E+00 0. -1.
        -14    1    4    4    0    0 -0.20767595938E+02  0.65903849654E+02  0.92202945749E+02  0.11522149819E+03  0.00000000000E+00 0.  1.
         -5    1    3    3    0  504  0.78382265001E+02 -0.25954637468E+02  0.12878658324E+03  0.15305390128E+03  0.47000000000E+01 0.  1.
<mgrwt>
<rscale>  2 0.18301103E+03</rscale>
<asrwt>0</asrwt>
<pdfrwt beam="1">  1       21 0.18502479E+00 0.18478025E+03</pdfrwt>
<pdfrwt beam="2">  1       21 0.53971028E-02 0.18478025E+03</pdfrwt>
<totfact> 0.39961795E+04</totfact>
</mgrwt>
</event>
<event>
12    1  0.2791583E-001  0.1898406E+03  0.7546771E-02  0.1159012E+00
         21   -1    0    0  502  503  0.00000000000E+00  0.00000000000E+00  0.44463213836E+03  0.44463213836E+03  0.00000000000E+00 0. -1.
         21   -1    0    0  503  504 -0.00000000000E+00 -0.00000000000E+00 -0.82504510579E+02  0.82504510579E+02  0.00000000000E+00 0. -1.
         -6    2    1    2    0  504 -0.29289887446E+02 -0.70657410135E+02  0.13705067793E+03  0.23268954656E+03  0.17178815339E+03 0.  0.
        -24    2    3    3    0    0 -0.19582073535E+02 -0.51742221059E+02  0.95989364375E+00  0.94867858882E+02  0.77060198605E+02 0.  0.
          6    2    1    2  502    0  0.29289887446E+02  0.70657410135E+02  0.22507694985E+03  0.29444710237E+03  0.17375009533E+03 0.  0.
         24    2    5    5    0    0  0.81950268879E+02  0.60119814601E+02  0.11873891667E+03  0.17522452065E+03  0.79211511960E+02 0.  0.
          4    1    6    6  501    0  0.85601627675E+02  0.26183885190E+02  0.61586851980E+02  0.10865622320E+03  0.00000000000E+00 0. -1.
         -3    1    6    6    0  501 -0.36513587964E+01  0.33935929411E+02  0.57152064689E+02  0.66568297441E+02  0.00000000000E+00 0.  1.
          5    1    5    5  502    0 -0.52660381433E+02  0.10537595534E+02  0.10633803318E+03  0.11922258172E+03  0.47000000000E+01 0. -1.
         11    1    4    4    0    0 -0.38721630306E+02  0.90323435882E+00 -0.18949955441E+01  0.38778492672E+02  0.00000000000E+00 0. -1.
        -12    1    4    4    0    0  0.19139556771E+02 -0.52645455417E+02  0.28548891879E+01  0.56089366209E+02  0.00000000000E+00 0.  1.
         -5    1    3    3    0  504 -0.97078139115E+01 -0.18915189077E+02  0.13609078428E+03  0.13782168768E+03  0.47000000000E+01 0.  1.
<mgrwt>
<rscale>  2 0.18939053E+03</rscale>
<asrwt>0</asrwt>
<pdfrwt beam="1">  1       21 0.68404943E-01 0.18984062E+03</pdfrwt>
<pdfrwt beam="2">  1       21 0.12693002E-01 0.18984062E+03</pdfrwt>
<totfact> 0.10354994E+05</totfact>
</mgrwt>
</event>
<event>
12    1  0.2791583E-001  0.1837534E+03  0.7546771E-02  0.1164273E+00
         21   -1    0    0  502  503  0.00000000000E+00  0.00000000000E+00  0.33066744655E+03  0.33066744655E+03  0.00000000000E+00 0.  1.
         21   -1    0    0  503  504 -0.00000000000E+00 -0.00000000000E+00 -0.10222170013E+03  0.10222170013E+03  0.00000000000E+00 0.  1.
         -6    2    1    2    0  504 -0.65658501723E+02  0.35638062126E+01  0.10373837591E+03  0.21081426073E+03  0.17133961108E+03 0.  0.
        -24    2    3    3    0    0 -0.82278964864E+02  0.42536430218E+02  0.27539059834E+02  0.12350142669E+03  0.76909210267E+02 0.  0.
          6    2    1    2  502    0  0.65658501723E+02 -0.35638062126E+01  0.12470737051E+03  0.22207488595E+03  0.17158550972E+03 0.  0.
         24    2    5    5    0    0 -0.30672608457E+01  0.33041824947E+02  0.17631719654E+02  0.89596632338E+02  0.81335777512E+02 0.  0.
          4    1    6    6  501    0 -0.26397569094E+02 -0.17841369535E+02  0.69185458014E+01  0.32603870889E+02  0.00000000000E+00 0. -1.
         -3    1    6    6    0  501  0.23330308248E+02  0.50883194482E+02  0.10713173852E+02  0.56992761449E+02  0.00000000000E+00 0.  1.
          5    1    5    5  502    0  0.68725762569E+02 -0.36605631159E+02  0.10707565085E+03  0.13247825361E+03  0.47000000000E+01 0. -1.
         13    1    4    4    0    0 -0.10061378372E+02 -0.21485594315E+02  0.29440950958E+01  0.23906689309E+02  0.00000000000E+00 0. -1.
        -14    1    4    4    0    0 -0.72217586492E+02  0.64022024533E+02  0.24594964738E+02  0.99594737384E+02  0.00000000000E+00 0.  1.
         -5    1    3    3    0  504  0.16620463141E+02 -0.38972624005E+02  0.76199316075E+02  0.87312834035E+02  0.47000000000E+01 0.  1.
<mgrwt>
<rscale>  2 0.18369601E+03</rscale>
<asrwt>0</asrwt>
<pdfrwt beam="1">  1       21 0.50871914E-01 0.18375344E+03</pdfrwt>
<pdfrwt beam="2">  1       21 0.15726416E-01 0.18375344E+03</pdfrwt>
<totfact> 0.13266138E+05</totfact>
</mgrwt>
</event>
<event>
12    1  0.2791583E-001  0.2025410E+03  0.7546771E-02  0.1147912E+00
         21   -1    0    0  502  503  0.00000000000E+00  0.00000000000E+00  0.37731236368E+03  0.37731236368E+03  0.00000000000E+00 0. -1.
         21   -1    0    0  503  504 -0.00000000000E+00 -0.00000000000E+00 -0.12406221010E+03  0.12406221010E+03  0.00000000000E+00 0. -1.
         -6    2    1    2    0  504  0.32738235538E+02 -0.10034000851E+03  0.35899160016E+02  0.20428144099E+03  0.17117899424E+03 0.  0.
        -24    2    3    3    0    0  0.15393190533E+01 -0.12016833932E+03 -0.93806994229E+01  0.14563938472E+03  0.81731472411E+02 0.  0.
          6    2    1    2  502    0 -0.32738235538E+02  0.10034000851E+03  0.21735099356E+03  0.29709313279E+03  0.17286690190E+03 0.  0.
         24    2    5    5    0    0 -0.69388069355E+02  0.21353252011E+02  0.75751834942E+02  0.13079662127E+03  0.78094494671E+02 0.  0.
          4    1    6    6  501    0 -0.36524839774E+02 -0.20657565383E+02  0.63430903315E+02  0.76054443811E+02  0.00000000000E+00 0. -1.
         -3    1    6    6    0  501 -0.32863229582E+02  0.42010817394E+02  0.12320931627E+02  0.54742177458E+02  0.00000000000E+00 0.  1.
          5    1    5    5  502    0  0.36649833817E+02  0.78986756500E+02  0.14159915862E+03  0.16629651152E+03  0.47000000000E+01 0. -1.
         11    1    4    4    0    0 -0.86852069852E+01 -0.23076741796E+02 -0.36742538894E+02  0.44249101649E+02  0.00000000000E+00 0. -1.
        -12    1    4    4    0    0  0.10224526039E+02 -0.97091597525E+02  0.27361839471E+02  0.10139028307E+03  0.00000000000E+00 0.  1.
         -5    1    3    3    0  504  0.31198916485E+02  0.19828330810E+02  0.45279859439E+02  0.58642056268E+02  0.47000000000E+01 0.  1.
<mgrwt>
<rscale>  2 0.20218041E+03</rscale>
<asrwt>0</asrwt>
<pdfrwt beam="1">  1       21 0.58048056E-01 0.20254105E+03</pdfrwt>
<pdfrwt beam="2">  1       21 0.19086494E-01 0.20254105E+03</pdfrwt>
<totfact> 0.69736445E+04</totfact>
</mgrwt>
</event>
<event>
12    1  0.2791583E-001  0.1943950E+03  0.7546771E-02  0.1155128E+00
         21   -1    0    0  502  503  0.00000000000E+00  0.00000000000E+00  0.11190657703E+04  0.11190657703E+04  0.00000000000E+00 0. -1.
         21   -1    0    0  503  504 -0.00000000000E+00 -0.00000000000E+00 -0.45464711797E+02  0.45464711797E+02  0.00000000000E+00 0.  1.
         -6    2    1    2    0  504  0.11997848062E+02 -0.87569265607E+02  0.23850649868E+03  0.30769261985E+03  0.17313888575E+03 0.  0.
        -24    2    3    3    0    0 -0.17325591180E+02 -0.90716909952E+02  0.24777293316E+03  0.27642396842E+03  0.80554640149E+02 0.  0.
          6    2    1    2  502    0 -0.11997848062E+02  0.87569265607E+02  0.83509455979E+03  0.85683786222E+03  0.17022301167E+03 0.  0.
         24    2    5    5    0    0 -0.68347227017E+02  0.66909124602E+02  0.65841406593E+03  0.67018261625E+03  0.80544909959E+02 0.  0.
          4    1    6    6  501    0 -0.45622516663E+02  0.83626899514E+02  0.45885602755E+03  0.46864029529E+03  0.00000000000E+00 0. -1.
         -3    1    6    6    0  501 -0.22724710354E+02 -0.16717774911E+02  0.19955803838E+03  0.20154232096E+03  0.00000000000E+00 0.  1.
          5    1    5    5  502    0  0.56349378955E+02  0.20660141004E+02  0.17668049386E+03  0.18665524597E+03  0.47000000000E+01 0. -1.
         11    1    4    4    0    0 -0.29208795710E+02 -0.53976835975E+02  0.22118424925E+03  0.22954111764E+03  0.00000000000E+00 0. -1.
        -12    1    4    4    0    0  0.11883204530E+02 -0.36740073977E+02  0.26588683911E+02  0.46882850786E+02  0.00000000000E+00 0.  1.
         -5    1    3    3    0  504  0.29323439242E+02  0.31476443454E+01 -0.92664344816E+01  0.31268651424E+02  0.47000000000E+01 0.  1.
<mgrwt>
<rscale>  2 0.19374357E+03</rscale>
<asrwt>0</asrwt>
<pdfrwt beam="1">  1       21 0.17216394E+00 0.19439495E+03</pdfrwt>
<pdfrwt beam="2">  1       21 0.69945719E-02 0.19439495E+03</pdfrwt>
<totfact> 0.31177563E+04</totfact>
</mgrwt>
</event>
<event>
12    1  0.2791583E-001  0.2056156E+03  0.7546771E-02  0.1145621E+00
         21   -1    0    0  502  503  0.00000000000E+00  0.00000000000E+00  0.56013939310E+02  0.56013939310E+02  0.00000000000E+00 0. -1.
         21   -1    0    0  503  504 -0.00000000000E+00 -0.00000000000E+00 -0.94817468098E+03  0.94817468098E+03  0.00000000000E+00 0.  1.
         -6    2    1    2    0  504  0.71836387494E+02 -0.81905157802E+02 -0.67613746145E+03  0.70595406853E+03  0.17129027600E+03 0.  0.
        -24    2    3    3    0    0  0.94779557839E+02 -0.90064797287E+02 -0.39291972049E+03  0.42165256031E+03  0.79436405821E+02 0.  0.
          6    2    1    2  502    0 -0.71836387494E+02  0.81905157802E+02 -0.21602328022E+03  0.29823455176E+03  0.17438138899E+03 0.  0.
         24    2    5    5    0    0 -0.31162827555E+02  0.79676549072E+02 -0.22798278016E+03  0.25552126561E+03  0.77430580772E+02 0.  0.
          2    1    6    6  501    0  0.16941595350E+02  0.61776532827E+02 -0.12788281694E+03  0.14302927158E+03  0.00000000000E+00 0. -1.
         -1    1    6    6    0  501 -0.48104422905E+02  0.17900016246E+02 -0.10009996322E+03  0.11249199403E+03  0.00000000000E+00 0.  1.
          5    1    5    5  502    0 -0.40673559939E+02  0.22286087294E+01  0.11959499937E+02  0.42713286150E+02  0.47000000000E+01 0. -1.
         11    1    4    4    0    0 -0.12146195044E+02 -0.22906663459E+02 -0.84450738577E+02  0.88341227810E+02  0.00000000000E+00 0. -1.
        -12    1    4    4    0    0  0.10692575288E+03 -0.67158133828E+02 -0.30846898191E+03  0.33331133250E+03  0.00000000000E+00 0.  1.
         -5    1    3    3    0  504 -0.22943170346E+02  0.81596394854E+01 -0.28321774096E+03  0.28430150822E+03  0.47000000000E+01 0.  1.
<mgrwt>
<rscale>  2 0.20495876E+03</rscale>
<asrwt>0</asrwt>
<pdfrwt beam="1">  1       21 0.86175296E-02 0.20561564E+03</pdfrwt>
<pdfrwt beam="2">  1       21 0.14587302E+00 0.20561564E+03</pdfrwt>
<totfact> 0.33630780E+04</totfact>
</mgrwt>
</event>
<event>
12    1  0.2791583E-001  0.2313168E+03  0.7546771E-02  0.1127062E+00
         21   -1    0    0  502  503  0.00000000000E+00  0.00000000000E+00  0.56067366656E+03  0.56067366656E+03  0.00000000000E+00 0. -1.
         21   -1    0    0  503  504 -0.00000000000E+00 -0.00000000000E+00 -0.92384554217E+02  0.92384554217E+02  0.00000000000E+00 0.  1.
         -6    2    1    2    0  504 -0.54614617434E+02 -0.13044187680E+03  0.23758020852E+03  0.32635643019E+03  0.17339643706E+03 0.  0.
        -24    2    3    3    0    0  0.25384964214E+02 -0.19010844987E+02  0.81624509775E+02  0.11860398644E+03  0.79990851772E+02 0.  0.
          6    2    1    2  502    0  0.54614617434E+02  0.13044187680E+03  0.23070890382E+03  0.32670179059E+03  0.18305633562E+03 0.  0.
         24    2    5    5    0    0  0.85280488456E+02  0.15663954136E+03  0.17909997620E+03  0.26103380231E+03  0.65216078102E+02 0.  0.
          2    1    6    6  501    0  0.82801595610E+02  0.93167020975E+02  0.10144761104E+03  0.16071034758E+03  0.00000000000E+00 0. -1.
         -1    1    6    6    0  501  0.24788928460E+01  0.63472520389E+02  0.77652365156E+02  0.10032345473E+03  0.00000000000E+00 0.  1.
          5    1    5    5  502    0 -0.30665871022E+02 -0.26197664566E+02  0.51608927622E+02  0.65667988279E+02  0.47000000000E+01 0. -1.
         13    1    4    4    0    0 -0.54353128243E+00 -0.14069242656E+01  0.86822857026E+02  0.86835956632E+02  0.00000000000E+00 0. -1.
        -14    1    4    4    0    0  0.25928495496E+02 -0.17603920721E+02 -0.51983472507E+01  0.31768029804E+02  0.00000000000E+00 0.  1.
         -5    1    3    3    0  504 -0.79999581648E+02 -0.11143103181E+03  0.15595569875E+03  0.20775244376E+03  0.47000000000E+01 0.  1.
<mgrwt>
<rscale>  2 0.22940150E+03</rscale>
<asrwt>0</asrwt>
<pdfrwt beam="1">  1       21 0.86257485E-01 0.23131680E+03</pdfrwt>
<pdfrwt beam="2">  1       21 0.14213009E-01 0.23131680E+03</pdfrwt>
<totfact> 0.49205135E+04</totfact>
</mgrwt>
</event>
<event>
12    1  0.2791583E-001  0.1789379E+03  0.7546771E-02  0.1169748E+00
         21   -1    0    0  502  503  0.00000000000E+00  0.00000000000E+00  0.15652033259E+03  0.15652033259E+03  0.00000000000E+00 0.  1.
         21   -1    0    0  503  504 -0.00000000000E+00 -0.00000000000E+00 -0.27114411275E+03  0.27114411275E+03  0.00000000000E+00 0.  1.
         -6    2    1    2    0  504 -0.19007892722E+02  0.19395555052E+02 -0.16700811975E+03  0.24476617701E+03  0.17686515147E+03 0.  0.
        -24    2    3    3    0    0  0.35518303415E+02  0.38870066451E+02 -0.34000986620E+02  0.99627105350E+02  0.77440693992E+02 0.  0.
          6    2    1    2  502    0  0.19007892722E+02 -0.19395555052E+02  0.52384339596E+02  0.18289826833E+03  0.17311894749E+03 0.  0.
         24    2    5    5    0    0  0.37448250785E+01  0.59854492704E+02  0.49563246856E+02  0.10200587148E+03  0.65970435546E+02 0.  0.
          4    1    6    6  501    0  0.32047336586E+02  0.19168478659E+02  0.10189961622E+02  0.38707850291E+02  0.00000000000E+00 0. -1.
         -3    1    6    6    0  501 -0.28302511507E+02  0.40686014045E+02  0.39373285234E+02  0.63298021190E+02  0.00000000000E+00 0.  1.
          5    1    5    5  502    0  0.15263067644E+02 -0.79250047756E+02  0.28210927403E+01  0.80892396846E+02  0.47000000000E+01 0. -1.
         13    1    4    4    0    0  0.15446846536E+02  0.43269308017E+02 -0.54036500595E+02  0.70928002092E+02  0.00000000000E+00 0. -1.
        -14    1    4    4    0    0  0.20071456879E+02 -0.43992415664E+01  0.20035513975E+02  0.28699103258E+02  0.00000000000E+00 0.  1.
         -5    1    3    3    0  504 -0.54526196137E+02 -0.19474511399E+02 -0.13300713313E+03  0.14513907166E+03  0.47000000000E+01 0.  1.
<mgrwt>
<rscale>  2 0.17800515E+03</rscale>
<asrwt>0</asrwt>
<pdfrwt beam="1">  1       21 0.24080051E-01 0.17893789E+03</pdfrwt>
<pdfrwt beam="2">  1       21 0.41714479E-01 0.17893789E+03</pdfrwt>
<totfact> 0.90487371E+04</totfact>
</mgrwt>
</event>
<event>
12    1  0.2791583E-001  0.2142408E+03  0.7546771E-02  0.1138497E+00
         21   -1    0    0  502  503  0.00000000000E+00  0.00000000000E+00  0.24000038259E+03  0.24000038259E+03  0.00000000000E+00 0. -1.
         21   -1    0    0  503  504 -0.00000000000E+00 -0.00000000000E+00 -0.19127303131E+03  0.19127303131E+03  0.00000000000E+00 0. -1.
         -6    2    1    2    0  504  0.92080330844E+02  0.84439642729E+02  0.41086532818E+02  0.21689640250E+03  0.17247349258E+03 0.  0.
        -24    2    3    3    0    0  0.28214318688E+02  0.19561293153E+02  0.79683720325E+02  0.11790195500E+03  0.79829090801E+02 0.  0.
          6    2    1    2  502    0 -0.92080330844E+02 -0.84439642729E+02  0.76408184613E+01  0.21437701141E+03  0.17404103057E+03 0.  0.
         24    2    5    5    0    0 -0.28741937802E+02 -0.24416647381E+02  0.65308588142E+02  0.10967661187E+03  0.79633384002E+02 0.  0.
          4    1    6    6  501    0 -0.54613687713E+02 -0.18764078931E+02  0.58782615750E+02  0.82402314640E+02  0.00000000000E+00 0. -1.
         -3    1    6    6    0  501  0.25871749911E+02 -0.56525684498E+01  0.65259723925E+01  0.27274297227E+02  0.00000000000E+00 0.  1.
          5    1    5    5  502    0 -0.63338393043E+02 -0.60022995348E+02 -0.57667769681E+02  0.10470039954E+03  0.47000000000E+01 0. -1.
         11    1    4    4    0    0  0.55818683406E+02  0.13270150064E+02  0.43733942610E+02  0.72142082283E+02  0.00000000000E+00 0. -1.
        -12    1    4    4    0    0 -0.27604364719E+02  0.62911430888E+01  0.35949777715E+02  0.45759872712E+02  0.00000000000E+00 0.  1.
         -5    1    3    3    0  504  0.63866012157E+02  0.64878349577E+02 -0.38597187508E+02  0.98994447501E+02  0.47000000000E+01 0.  1.
<mgrwt>
<rscale>  2 0.21392223E+03</rscale>
<asrwt>0</asrwt>
<pdfrwt beam="1">  1       21 0.36923136E-01 0.21424080E+03</pdfrwt>
<pdfrwt beam="2">  1       21 0.29426620E-01 0.21424080E+03</pdfrwt>
<totfact> 0.77553223E+04</totfact>
</mgrwt>
</event>
<event>
12    1  0.2791583E-001  0.2225652E+03  0.7546771E-02  0.1132044E+00
         21   -1    0    0  502  503  0.00000000000E+00  0.00000000000E+00  0.82737150356E+02  0.82737150356E+02  0.00000000000E+00 0. -1.
         21   -1    0    0  503  504 -0.00000000000E+00 -0.00000000000E+00 -0.67103099315E+03  0.67103099315E+03  0.00000000000E+00 0. -1.
         -6    2    1    2    0  504  0.97103927598E+02  0.99843596975E+02 -0.41842615260E+03  0.47378547223E+03  0.17318865988E+03 0.  0.
        -24    2    3    3    0    0  0.50772374213E+02  0.95926961338E+02 -0.40240555036E+03  0.42438200505E+03  0.79937746752E+02 0.  0.
          6    2    1    2  502    0 -0.97103927598E+02 -0.99843596975E+02 -0.16986769019E+03  0.27998267127E+03  0.17360111586E+03 0.  0.
         24    2    5    5    0    0 -0.40352144329E+02 -0.25851632533E+02 -0.83433734407E+01  0.93414263953E+02  0.79749673184E+02 0.  0.
          2    1    6    6  501    0  0.22421065685E+02  0.15611663166E+01 -0.10664655137E+02  0.24877224442E+02  0.00000000000E+00 0. -1.
         -1    1    6    6    0  501 -0.62773210015E+02 -0.27412798849E+02  0.23212816962E+01  0.68537039512E+02  0.00000000000E+00 0.  1.
          5    1    5    5  502    0 -0.56751783269E+02 -0.73991964442E+02 -0.16152431675E+03  0.18656840732E+03  0.47000000000E+01 0. -1.
         13    1    4    4    0    0  0.44969913187E+02  0.71636844435E+02 -0.16263775003E+03  0.18331712497E+03  0.00000000000E+00 0. -1.
        -14    1    4    4    0    0  0.58024610258E+01  0.24290116903E+02 -0.23976780033E+03  0.24106488008E+03  0.00000000000E+00 0.  1.
         -5    1    3    3    0  504  0.46331553386E+02  0.39166356367E+01 -0.16020602241E+02  0.49403467186E+02  0.47000000000E+01 0.  1.
<mgrwt>
<rscale>  2 0.22248476E+03</rscale>
<asrwt>0</asrwt>
<pdfrwt beam="1">  1       21 0.12728792E-01 0.22256519E+03</pdfrwt>
<pdfrwt beam="2">  1       21 0.10323554E+00 0.22256519E+03</pdfrwt>
<totfact> 0.39546710E+04</totfact>
</mgrwt>
</event>
<event>
12    1  0.2791583E-001  0.1841976E+03  0.7546771E-02  0.1164771E+00
         21   -1    0    0  502  503  0.00000000000E+00  0.00000000000E+00  0.92771653965E+02  0.92771653965E+02  0.00000000000E+00 0.  1.
         21   -1    0    0  503  504 -0.00000000000E+00 -0.00000000000E+00 -0.36290208723E+03  0.36290208723E+03  0.00000000000E+00 0.  1.
         -6    2    1    2    0  504 -0.10052956458E+02 -0.47741055503E+02 -0.16392653402E+03  0.24657792710E+03  0.17761896087E+03 0.  0.
        -24    2    3    3    0    0  0.11491093354E+02 -0.16654404851E+02 -0.38872625637E+01  0.82062929785E+02  0.79434244550E+02 0.  0.
          6    2    1    2  502    0  0.10052956458E+02  0.47741055503E+02 -0.10620389924E+03  0.20909581410E+03  0.17338258547E+03 0.  0.
         24    2    5    5    0    0 -0.43343576729E+02  0.50037486472E+02 -0.11361845196E+03  0.15493375225E+03  0.81932284626E+02 0.  0.
          4    1    6    6  501    0 -0.11631933547E+02  0.15455276408E+02 -0.10557025875E+03  0.10732775494E+03  0.00000000000E+00 0. -1.
         -3    1    6    6    0  501 -0.31711643182E+02  0.34582210064E+02 -0.80481932101E+01  0.47605997313E+02  0.00000000000E+00 0.  1.
          5    1    5    5  502    0  0.53396533187E+02 -0.22964309689E+01  0.74145527214E+01  0.54162061848E+02  0.47000000000E+01 0. -1.
         11    1    4    4    0    0  0.15721149705E+02  0.21935031636E+02 -0.25926067804E+02  0.37422735772E+02  0.00000000000E+00 0. -1.
        -12    1    4    4    0    0 -0.42300563514E+01 -0.38589436487E+02  0.22038805240E+02  0.44640194013E+02  0.00000000000E+00 0.  1.
         -5    1    3    3    0  504 -0.21544049812E+02 -0.31086650652E+02 -0.16003927146E+03  0.16451499731E+03  0.47000000000E+01 0.  1.
<mgrwt>
<rscale>  2 0.18316864E+03</rscale>
<asrwt>0</asrwt>
<pdfrwt beam="1">  1       21 0.14272562E-01 0.18419763E+03</pdfrwt>
<pdfrwt beam="2">  1       21 0.55831090E-01 0.18419763E+03</pdfrwt>
<totfact> 0.13012035E+05</totfact>
</mgrwt>
</event>
<event>
12    1  0.2791583E-001  0.1792052E+03  0.7546771E-02  0.1168830E+00
         21   -1    0    0  502  503  0.00000000000E+00  0.00000000000E+00  0.96906852175E+02  0.96906852175E+02  0.00000000000E+00 0. -1.
         21   -1    0    0  503  504 -0.00000000000E+00 -0.00000000000E+00 -0.68791563494E+03  0.68791563494E+03  0.00000000000E+00 0. -1.
         -6    2    1    2    0  504  0.41379613904E+02  0.49476944396E+01 -0.57835286187E+03  0.60517090159E+03  0.17321384233E+03 0.  0.
        -24    2    3    3    0    0 -0.75302722755E+00  0.68375026489E+02 -0.35894244702E+03  0.37287538712E+03  0.74301162510E+02 0.  0.
          6    2    1    2  502    0 -0.41379613904E+02 -0.49476944396E+01 -0.12655920893E+02  0.17965158552E+03  0.17429219064E+03 0.  0.
         24    2    5    5    0    0 -0.49956872993E+02 -0.59530744628E+02 -0.38242271546E+02  0.11858088812E+03  0.80989857259E+02 0.  0.
          2    1    6    6  501    0 -0.51486325248E+02  0.10397479593E+01 -0.14435431440E+02  0.53481814145E+02  0.00000000000E+00 0. -1.
         -1    1    6    6    0  501  0.15294522547E+01 -0.60570492587E+02 -0.23806840106E+02  0.65099073974E+02  0.00000000000E+00 0.  1.
          5    1    5    5  502    0  0.85772590888E+01  0.54583050189E+02  0.25586350653E+02  0.61070697402E+02  0.47000000000E+01 0. -1.
         13    1    4    4    0    0  0.32377663559E+02  0.41420767576E+02 -0.13459217434E+03  0.14449583550E+03  0.00000000000E+00 0. -1.
        -14    1    4    4    0    0 -0.33130690786E+02  0.26954258914E+02 -0.22435027268E+03  0.22837955162E+03  0.00000000000E+00 0.  1.
         -5    1    3    3    0  504  0.42132641132E+02 -0.63427332050E+02 -0.21941041485E+03  0.23229551447E+03  0.47000000000E+01 0.  1.
<mgrwt>
<rscale>  2 0.17894252E+03</rscale>
<asrwt>0</asrwt>
<pdfrwt beam="1">  1       21 0.14908746E-01 0.17920525E+03</pdfrwt>
<pdfrwt beam="2">  1       21 0.10583318E+00 0.17920525E+03</pdfrwt>
<totfact> 0.28657611E+04</totfact>
</mgrwt>
</event>
<event>
12    1  0.2791583E-001  0.2027599E+03  0.7546771E-02  0.1147495E+00
         21   -1    0    0  502  503  0.00000000000E+00  0.00000000000E+00  0.16164869794E+04  0.16164869794E+04  0.00000000000E+00 0.  1.
         21   -1    0    0  503  504 -0.00000000000E+00 -0.00000000000E+00 -0.60085850061E+02  0.60085850061E+02  0.00000000000E+00 0.  1.
         -6    2    1    2    0  504  0.66473730730E+02  0.81861105678E+02  0.14147983734E+03  0.24724104188E+03  0.17318080412E+03 0.  0.
        -24    2    3    3    0    0 -0.16249044307E+02  0.15420756102E+02  0.10745300875E+03  0.13571843150E+03  0.79821753921E+02 0.  0.
          6    2    1    2  502    0 -0.66473730730E+02 -0.81861105678E+02  0.14149212920E+04  0.14293317876E+04  0.17282100261E+03 0.  0.
         24    2    5    5    0    0 -0.82380296129E+02 -0.61396054168E+02  0.13772306867E+04  0.13833479982E+04  0.79569662299E+02 0.  0.
          4    1    6    6  501    0 -0.29366545362E+02 -0.50248689719E+02  0.10542786926E+04  0.10558839361E+04  0.00000000000E+00 0. -1.
         -3    1    6    6    0  501 -0.53013750767E+02 -0.11147364449E+02  0.32295199406E+03  0.32746406210E+03  0.00000000000E+00 0.  1.
          5    1    5    5  502    0  0.15906565400E+02 -0.20465051510E+02  0.37690605338E+02  0.45983789393E+02  0.47000000000E+01 0. -1.
         13    1    4    4    0    0 -0.17585245777E+02  0.29960169465E+02  0.11439343441E+03  0.11955212445E+03  0.00000000000E+00 0. -1.
        -14    1    4    4    0    0  0.13362014696E+01 -0.14539413363E+02 -0.69404256600E+01  0.16166307051E+02  0.00000000000E+00 0.  1.
         -5    1    3    3    0  504  0.82722775037E+02  0.66440349576E+02  0.34026828583E+02  0.11152261038E+03  0.47000000000E+01 0.  1.
<mgrwt>
<rscale>  2 0.20268308E+03</rscale>
<asrwt>0</asrwt>
<pdfrwt beam="1">  1       21 0.24869027E+00 0.20275993E+03</pdfrwt>
<pdfrwt beam="2">  1       21 0.92439782E-02 0.20275993E+03</pdfrwt>
<totfact> 0.62452776E+03</totfact>
</mgrwt>
</event>
<event>
12    1  0.2791583E-001  0.1961786E+03  0.7546771E-02  0.1153131E+00
         21   -1    0    0  502  503  0.00000000000E+00  0.00000000000E+00  0.60856775288E+03  0.60856775288E+03  0.00000000000E+00 0.  1.
         21   -1    0    0  503  504 -0.00000000000E+00 -0.00000000000E+00 -0.63776730225E+02  0.63776730225E+02  0.00000000000E+00 0.  1.
         -6    2    1    2    0  504 -0.49813655040E+02  0.79444914557E+02  0.23614973248E+03  0.30663219425E+03  0.17164996860E+03 0.  0.
        -24    2    3    3    0    0  0.11822965046E+02  0.78865412314E+02  0.21037853071E+03  0.23965717204E+03  0.82564509121E+02 0.  0.
          6    2    1    2  502    0  0.49813655040E+02 -0.79444914557E+02  0.30864129018E+03  0.36571228886E+03  0.17231696824E+03 0.  0.
         24    2    5    5    0    0  0.43735378957E+02 -0.16253649017E+02  0.28189426404E+03  0.29666466118E+03  0.79803387263E+02 0.  0.
          2    1    6    6  501    0  0.15036734133E+02  0.31033695210E+02  0.14440466588E+03  0.14846515127E+03  0.00000000000E+00 0. -1.
         -1    1    6    6    0  501  0.28698644824E+02 -0.47287344227E+02  0.13748959815E+03  0.14819950992E+03  0.00000000000E+00 0.  1.
          5    1    5    5  502    0  0.60782760827E+01 -0.63191265540E+02  0.26747026143E+02  0.69047627680E+02  0.47000000000E+01 0. -1.
         11    1    4    4    0    0 -0.16649963969E+02  0.44802022583E+01  0.11084772463E+03  0.11218070943E+03  0.00000000000E+00 0. -1.
        -12    1    4    4    0    0  0.28472929014E+02  0.74385210055E+02  0.99530806079E+02  0.12747646261E+03  0.00000000000E+00 0.  1.
         -5    1    3    3    0  504 -0.61636620086E+02  0.57950224316E+00  0.25771201767E+02  0.66975022202E+02  0.47000000000E+01 0.  1.
<mgrwt>
<rscale>  2 0.19603201E+03</rscale>
<asrwt>0</asrwt>
<pdfrwt beam="1">  1       21 0.93625804E-01 0.19617857E+03</pdfrwt>
<pdfrwt beam="2">  1       21 0.98118051E-02 0.19617857E+03</pdfrwt>
<totfact> 0.80299281E+04</totfact>
</mgrwt>
</event>
<event>
12    1  0.2791583E-001  0.1965253E+03  0.7546771E-02  0.1153162E+00
         21   -1    0    0  502  503  0.00000000000E+00  0.00000000000E+00  0.78982457895E+03  0.78982457895E+03  0.00000000000E+00 0. -1.
         21   -1    0    0  503  504 -0.00000000000E+00 -0.00000000000E+00 -0.15601427247E+04  0.15601427247E+04  0.00000000000E+00 0. -1.
         -6    2    1    2    0  504  0.52113822708E+02  0.75426026888E+02 -0.15418463452E+04  0.15543205431E+04  0.17383113213E+03 0.  0.
        -24    2    3    3    0    0 -0.52842400000E+01  0.77927716302E+02 -0.13317336070E+04  0.13364438606E+04  0.80418531580E+02 0.  0.
          6    2    1    2  502    0 -0.52113822708E+02 -0.75426026888E+02  0.77152819943E+03  0.79564676057E+03  0.17144406971E+03 0.  0.
         24    2    5    5    0    0  0.29108239448E+02 -0.23638687281E+02  0.49139882407E+03  0.49938081777E+03  0.80636962470E+02 0.  0.
          4    1    6    6  501    0 -0.28072865528E+02 -0.93235034308E+01  0.18734087708E+03  0.18966185099E+03  0.00000000000E+00 0. -1.
         -3    1    6    6    0  501  0.57181104976E+02 -0.14315183850E+02  0.30405794699E+03  0.30971896678E+03  0.00000000000E+00 0.  1.
          5    1    5    5  502    0 -0.81222062155E+02 -0.51787339607E+02  0.28012937536E+03  0.29626594280E+03  0.47000000000E+01 0. -1.
         13    1    4    4    0    0 -0.27739207421E+01 -0.16945139899E+02 -0.21530011603E+03  0.21598373171E+03  0.00000000000E+00 0. -1.
        -14    1    4    4    0    0 -0.25103192579E+01  0.94872856202E+02 -0.11164334910E+04  0.11204601289E+04  0.00000000000E+00 0.  1.
         -5    1    3    3    0  504  0.57398062708E+02 -0.25016894140E+01 -0.21011273813E+03  0.21787668250E+03  0.47000000000E+01 0.  1.
<mgrwt>
<rscale>  2 0.19599612E+03</rscale>
<asrwt>0</asrwt>
<pdfrwt beam="1">  1       21 0.12151147E+00 0.19652531E+03</pdfrwt>
<pdfrwt beam="2">  1       21 0.24002196E+00 0.19652531E+03</pdfrwt>
<totfact> 0.38743167E+01</totfact>
</mgrwt>
</event>
<event>
12    1  0.2791583E-001  0.2498459E+03  0.7546771E-02  0.1113487E+00
         21   -1    0    0  502  503  0.00000000000E+00  0.00000000000E+00  0.23378527424E+02  0.23378527424E+02  0.00000000000E+00 0.  1.
         21   -1    0    0  503  504 -0.00000000000E+00 -0.00000000000E+00 -0.27664021449E+04  0.27664021449E+04  0.00000000000E+00 0. -1.
         -6    2    1    2    0  504  0.68463817234E+02 -0.16601381038E+03 -0.11021949222E+04  0.11300391979E+04  0.17293658586E+03 0.  0.
        -24    2    3    3    0    0 -0.29705090672E+02 -0.85338078485E+02 -0.60155410534E+03  0.61350359824E+03  0.79714135192E+02 0.  0.
          6    2    1    2  502    0 -0.68463817234E+02  0.16601381038E+03 -0.16408286953E+04  0.16597414745E+04  0.17370974416E+03 0.  0.
         24    2    5    5    0    0  0.48000392209E+01  0.15388973971E+03 -0.84918222992E+03  0.86460576157E+03  0.52226152246E+02 0.  0.
          4    1    6    6  501    0  0.68350749612E+01  0.11071930725E+03 -0.71718661033E+03  0.72571490083E+03  0.00000000000E+00 0. -1.
         -3    1    6    6    0  501 -0.20350357404E+01  0.43170432452E+02 -0.13199561958E+03  0.13889086074E+03  0.00000000000E+00 0.  1.
          5    1    5    5  502    0 -0.73263856455E+02  0.12124070679E+02 -0.79164646540E+03  0.79513571290E+03  0.47000000000E+01 0. -1.
         13    1    4    4    0    0 -0.22759938944E+02 -0.22804389579E+02 -0.42231352600E+03  0.42354075276E+03  0.00000000000E+00 0. -1.
        -14    1    4    4    0    0 -0.69451517279E+01 -0.62533688906E+02 -0.17924057933E+03  0.18996284548E+03  0.00000000000E+00 0.  1.
         -5    1    3    3    0  504  0.98168907906E+02 -0.80675731899E+02 -0.50064081683E+03  0.51653559961E+03  0.47000000000E+01 0.  1.
<mgrwt>
<rscale>  2 0.24971152E+03</rscale>
<asrwt>0</asrwt>
<pdfrwt beam="1">  1       21 0.35966979E-02 0.24984586E+03</pdfrwt>
<pdfrwt beam="2">  1       21 0.42560017E+00 0.24984586E+03</pdfrwt>
<totfact> 0.26113160E+03</totfact>
</mgrwt>
</event>
<event>
12    1  0.2791583E-001  0.2329687E+03  0.7546771E-02  0.1125296E+00
         21   -1    0    0  502  503  0.00000000000E+00  0.00000000000E+00  0.30865237774E+03  0.30865237774E+03  0.00000000000E+00 0.  1.
         21   -1    0    0  503  504 -0.00000000000E+00 -0.00000000000E+00 -0.20172278066E+03  0.20172278066E+03  0.00000000000E+00 0.  1.
         -6    2    1    2    0  504 -0.37214458848E+02 -0.15000174972E+03 -0.43723733460E+02  0.23293896415E+03  0.16871086296E+03 0.  0.
        -24    2    3    3    0    0  0.28688142790E+02 -0.52781422811E+02 -0.47246973548E+02  0.11534029031E+03  0.86384130071E+02 0.  0.
          6    2    1    2  502    0  0.37214458848E+02  0.15000174972E+03  0.15065333053E+03  0.27743619426E+03  0.17432433856E+03 0.  0.
         24    2    5    5    0    0 -0.85840823616E+01  0.16563383326E+03  0.13117650922E+03  0.22505962525E+03  0.77047421487E+02 0.  0.
          2    1    6    6  501    0 -0.33978732615E+02  0.49792979240E+02  0.22934751621E+02  0.64497270358E+02  0.00000000000E+00 0. -1.
         -1    1    6    6    0  501  0.25394650254E+02  0.11584085402E+03  0.10824175759E+03  0.16056235489E+03  0.00000000000E+00 0.  1.
          5    1    5    5  502    0  0.45798541210E+02 -0.15632083532E+02  0.19476821319E+02  0.52376569009E+02  0.47000000000E+01 0. -1.
         13    1    4    4    0    0  0.13912020894E+02  0.77443671939E+01 -0.50501450936E+02  0.52952016913E+02  0.00000000000E+00 0. -1.
        -14    1    4    4    0    0  0.14776121896E+02 -0.60525790005E+02  0.32544773882E+01  0.62388273394E+02  0.00000000000E+00 0.  1.
         -5    1    3    3    0  504 -0.65902601638E+02 -0.97220326913E+02  0.35232400878E+01  0.11759867384E+03  0.47000000000E+01 0.  1.
<mgrwt>
<rscale>  2 0.23191910E+03</rscale>
<asrwt>0</asrwt>
<pdfrwt beam="1">  1       21 0.47484981E-01 0.23296870E+03</pdfrwt>
<pdfrwt beam="2">  1       21 0.31034274E-01 0.23296870E+03</pdfrwt>
<totfact> 0.41489719E+04</totfact>
</mgrwt>
</event>
<event>
12    1  0.2791583E-001  0.2176191E+03  0.7546771E-02  0.1136172E+00
         21   -1    0    0  502  503  0.00000000000E+00  0.00000000000E+00  0.26882368122E+03  0.26882368122E+03  0.00000000000E+00 0.  1.
         21   -1    0    0  503  504 -0.00000000000E+00 -0.00000000000E+00 -0.17697977618E+03  0.17697977618E+03  0.00000000000E+00 0.  1.
         -6    2    1    2    0  504 -0.97857016745E+02 -0.80654580300E+02  0.74915416121E+02  0.23015301648E+03  0.17685286080E+03 0.  0.
        -24    2    3    3    0    0 -0.69753528634E+02 -0.10568173169E+03  0.10442773907E+03  0.18209855199E+03  0.78870443008E+02 0.  0.
          6    2    1    2  502    0  0.97857016745E+02  0.80654580300E+02  0.16928488918E+02  0.21565044092E+03  0.17360121510E+03 0.  0.
         24    2    5    5    0    0  0.69764166488E+02  0.69145573814E+02 -0.54259380179E+02  0.13811678260E+03  0.80523387875E+02 0.  0.
          2    1    6    6  501    0 -0.94145062537E+01  0.38072379252E+02 -0.42545352102E+01  0.39449208608E+02  0.00000000000E+00 0. -1.
         -1    1    6    6    0  501  0.79178672742E+02  0.31073194561E+02 -0.50004844969E+02  0.98667573993E+02  0.00000000000E+00 0.  1.
          5    1    5    5  502    0  0.28092850258E+02  0.11509006486E+02  0.71187869097E+02  0.77533658320E+02  0.47000000000E+01 0. -1.
         13    1    4    4    0    0 -0.29055252210E+02 -0.79751682783E+02  0.23834506718E+02  0.88162476702E+02  0.00000000000E+00 0. -1.
        -14    1    4    4    0    0 -0.40698276424E+02 -0.25930048912E+02  0.80593232352E+02  0.93936075293E+02  0.00000000000E+00 0.  1.
         -5    1    3    3    0  504 -0.28103488112E+02  0.25027151395E+02 -0.29512322950E+02  0.48054464484E+02  0.47000000000E+01 0.  1.
<mgrwt>
<rscale>  2 0.21695759E+03</rscale>
<asrwt>0</asrwt>
<pdfrwt beam="1">  1       21 0.41357489E-01 0.21761914E+03</pdfrwt>
<pdfrwt beam="2">  1       21 0.27227658E-01 0.21761914E+03</pdfrwt>
<totfact> 0.71619072E+04</totfact>
</mgrwt>
</event>
<event>
12    1  0.2791583E-001  0.1862237E+03  0.7546771E-02  0.1162000E+00
         21   -1    0    0  502  503  0.00000000000E+00  0.00000000000E+00  0.33793197594E+04  0.33793197594E+04  0.00000000000E+00 0. -1.
         21   -1    0    0  503  504 -0.00000000000E+00 -0.00000000000E+00 -0.14023677649E+02  0.14023677649E+02  0.00000000000E+00 0. -1.
         -6    2    1    2    0  504  0.47209331666E+02 -0.48523024922E+02  0.80274789949E+03  0.82406519529E+03  0.17348213454E+03 0.  0.
        -24    2    3    3    0    0  0.24641185850E+02  0.37071708771E+02  0.30959793370E+03  0.32301154706E+03  0.80647872587E+02 0.  0.
          6    2    1    2  502    0 -0.47209331666E+02  0.48523024922E+02  0.25625481823E+04  0.25692782418E+04  0.17307308351E+03 0.  0.
         24    2    5    5    0    0 -0.63584746525E+02  0.66289061788E+02  0.24885654387E+04  0.24913082307E+04  0.72259933910E+02 0.  0.
          2    1    6    6  501    0  0.46203221950E+01  0.33159682045E+02  0.12335597227E+04  0.12340139794E+04  0.00000000000E+00 0. -1.
         -1    1    6    6    0  501 -0.68205068720E+02  0.33129379743E+02  0.12550057159E+04  0.12572942513E+04  0.00000000000E+00 0.  1.
          5    1    5    5  502    0  0.16375414859E+02 -0.17766036866E+02  0.73982743628E+02  0.77970011110E+02  0.47000000000E+01 0. -1.
         13    1    4    4    0    0 -0.17433267658E+02 -0.27055465145E+01  0.18244840104E+03  0.18329936674E+03  0.00000000000E+00 0. -1.
        -14    1    4    4    0    0  0.42074453508E+02  0.39777255286E+02  0.12714953265E+03  0.13971218032E+03  0.00000000000E+00 0.  1.
         -5    1    3    3    0  504  0.22568145816E+02 -0.85594733693E+02  0.49314996580E+03  0.50105364823E+03  0.47000000000E+01 0.  1.
<mgrwt>
<rscale>  2 0.18612835E+03</rscale>
<asrwt>0</asrwt>
<pdfrwt beam="1">  1       21 0.51989470E+00 0.18622367E+03</pdfrwt>
<pdfrwt beam="2">  1       21 0.21574916E-02 0.18622367E+03</pdfrwt>
<totfact> 0.15008335E+03</totfact>
</mgrwt>
</event>
<event>
12    1  0.2791583E-001  0.2282154E+03  0.7546771E-02  0.1128954E+00
         21   -1    0    0  502  503  0.00000000000E+00  0.00000000000E+00  0.15391298499E+03  0.15391298499E+03  0.00000000000E+00 0. -1.
         21   -1    0    0  503  504 -0.00000000000E+00 -0.00000000000E+00 -0.36296525019E+03  0.36296525019E+03  0.00000000000E+00 0. -1.
         -6    2    1    2    0  504 -0.18289117060E+02 -0.14737102182E+03 -0.18142026271E+03  0.28699611085E+03  0.16553170707E+03 0.  0.
        -24    2    3    3    0    0  0.39933745163E+02 -0.35400744447E+02 -0.83850243938E+02  0.12740524876E+03  0.79707699076E+02 0.  0.
          6    2    1    2  502    0  0.18289117060E+02  0.14737102182E+03 -0.27632002490E+02  0.22988212433E+03  0.17329037380E+03 0.  0.
         24    2    5    5    0    0 -0.45868992547E+01  0.49519726089E+02 -0.69584828259E+02  0.12088525379E+03  0.85428059461E+02 0.  0.
          2    1    6    6  501    0  0.20515326608E+02 -0.10584620367E+02  0.30923031412E+01  0.23291096000E+02  0.00000000000E+00 0. -1.
         -1    1    6    6    0  501 -0.25102225863E+02  0.60104346456E+02 -0.72677131400E+02  0.97594157790E+02  0.00000000000E+00 0.  1.
          5    1    5    5  502    0  0.22876016315E+02  0.97851295729E+02  0.41952825769E+02  0.10899687054E+03  0.47000000000E+01 0. -1.
         13    1    4    4    0    0  0.35923084118E+02 -0.36945347395E+02 -0.88539832954E+01  0.52285941580E+02  0.00000000000E+00 0. -1.
        -14    1    4    4    0    0  0.40106610454E+01  0.15446029485E+01 -0.74996260643E+02  0.75119307177E+02  0.00000000000E+00 0.  1.
         -5    1    3    3    0  504 -0.58222862223E+02 -0.11197027737E+03 -0.97570018768E+02  0.15959086209E+03  0.47000000000E+01 0.  1.
<mgrwt>
<rscale>  2 0.22674268E+03</rscale>
<asrwt>0</asrwt>
<pdfrwt beam="1">  1       21 0.23678921E-01 0.22821539E+03</pdfrwt>
<pdfrwt beam="2">  1       21 0.55840808E-01 0.22821539E+03</pdfrwt>
<totfact> 0.49895930E+04</totfact>
</mgrwt>
</event>
<event>
12    1  0.2791583E-001  0.2591022E+03  0.7546771E-02  0.1107908E+00
         21   -1    0    0  502  503  0.00000000000E+00  0.00000000000E+00  0.88207596119E+02  0.88207596119E+02  0.00000000000E+00 0.  1.
         21   -1    0    0  503  504 -0.00000000000E+00 -0.00000000000E+00 -0.75909700114E+03  0.75909700114E+03  0.00000000000E+00 0. -1.
         -6    2    1    2    0  504 -0.16331303769E+03  0.10030541172E+03 -0.36001238605E+03  0.44355707848E+03  0.17436066031E+03 0.  0.
        -24    2    3    3    0    0 -0.15086272666E+03  0.42405282155E+02 -0.33648278060E+03  0.37965741041E+03  0.79757867213E+02 0.  0.
          6    2    1    2  502    0  0.16331303769E+03 -0.10030541172E+03 -0.31087701897E+03  0.40374751878E+03  0.17214881381E+03 0.  0.
         24    2    5    5    0    0  0.85506677523E+02 -0.87565050220E+02 -0.97444273054E+02  0.17616945849E+03  0.81001616242E+02 0.  0.
          2    1    6    6  501    0  0.10030330838E+03 -0.76819327058E+02 -0.73931325294E+02  0.14638238809E+03  0.00000000000E+00 0. -1.
         -1    1    6    6    0  501 -0.14796630859E+02 -0.10745723162E+02 -0.23512947761E+02  0.29787070408E+02  0.00000000000E+00 0.  1.
          5    1    5    5  502    0  0.77806360166E+02 -0.12740361497E+02 -0.21343274591E+03  0.22757806028E+03  0.47000000000E+01 0. -1.
         11    1    4    4    0    0 -0.50369955257E+02  0.81747004701E+01 -0.20186602028E+03  0.20821586938E+03  0.00000000000E+00 0. -1.
        -12    1    4    4    0    0 -0.10049277141E+03  0.34230581685E+02 -0.13461676033E+03  0.17144154102E+03  0.00000000000E+00 0.  1.
         -5    1    3    3    0  504 -0.12450311026E+02  0.57900129562E+02 -0.23529605448E+02  0.63899668078E+02  0.47000000000E+01 0.  1.
<mgrwt>
<rscale>  2 0.25873062E+03</rscale>
<asrwt>0</asrwt>
<pdfrwt beam="1">  1       21 0.13570400E-01 0.25910223E+03</pdfrwt>
<pdfrwt beam="2">  1       21 0.11678415E+00 0.25910223E+03</pdfrwt>
<totfact> 0.25625816E+04</totfact>
</mgrwt>
</event>
<event>
12    1  0.2791583E-001  0.1890358E+03  0.7546771E-02  0.1160368E+00
         21   -1    0    0  502  503  0.00000000000E+00  0.00000000000E+00  0.66258668674E+03  0.66258668674E+03  0.00000000000E+00 0. -1.
         21   -1    0    0  503  504 -0.00000000000E+00 -0.00000000000E+00 -0.12094589370E+03  0.12094589370E+03  0.00000000000E+00 0. -1.
         -6    2    1    2    0  504 -0.55458169825E+02  0.33112510264E+02 -0.22130965683E+02  0.19032689062E+03  0.17765837642E+03 0.  0.
        -24    2    3    3    0    0  0.27101500155E+02 -0.15390828460E+02 -0.36685323972E+02  0.93359925521E+02  0.79993085870E+02 0.  0.
          6    2    1    2  502    0  0.55458169825E+02 -0.33112510264E+02  0.56377175873E+03  0.59320568982E+03  0.17286511378E+03 0.  0.
         24    2    5    5    0    0  0.25739977048E+02  0.49161301361E+02  0.29056476833E+03  0.30629751520E+03  0.79441193685E+02 0.  0.
          2    1    6    6  501    0 -0.22690754008E+02 -0.60181334595E+01  0.72250104372E+02  0.75968189590E+02  0.00000000000E+00 0. -1.
         -1    1    6    6    0  501  0.48430731056E+02  0.55179434821E+02  0.21831466396E+03  0.23032932561E+03  0.00000000000E+00 0.  1.
          5    1    5    5  502    0  0.29718192778E+02 -0.82273811625E+02  0.27320699040E+03  0.28690817462E+03  0.47000000000E+01 0. -1.
         11    1    4    4    0    0  0.10151928462E+02 -0.15407544584E+02 -0.60994951207E+02  0.63724705996E+02  0.00000000000E+00 0. -1.
        -12    1    4    4    0    0  0.16949571693E+02  0.16716124649E-01  0.24309627234E+02  0.29635219525E+02  0.00000000000E+00 0.  1.
         -5    1    3    3    0  504 -0.82559669981E+02  0.48503338723E+02  0.14554358290E+02  0.96966965096E+02  0.47000000000E+01 0.  1.
<mgrwt>
<rscale>  2 0.18790128E+03</rscale>
<asrwt>0</asrwt>
<pdfrwt beam="1">  1       21 0.10193641E+00 0.18903583E+03</pdfrwt>
<pdfrwt beam="2">  1       21 0.18607061E-01 0.18903583E+03</pdfrwt>
<totfact> 0.20753975E+04</totfact>
</mgrwt>
</event>
<event>
12    1  0.2791583E-001  0.2469698E+03  0.7546771E-02  0.1115482E+00
         21   -1    0    0  502  503  0.00000000000E+00  0.00000000000E+00  0.25534895932E+03  0.25534895932E+03  0.00000000000E+00 0.  1.
         21   -1    0    0  503  504 -0.00000000000E+00 -0.00000000000E+00 -0.25982420624E+03  0.25982420624E+03  0.00000000000E+00 0. -1.
         -6    2    1    2    0  504 -0.17293757066E+03 -0.20625607368E+02 -0.77942951997E+02  0.25897716408E+03  0.17510353714E+03 0.  0.
        -24    2    3    3    0    0 -0.16693202605E+03 -0.53732841449E+02 -0.23936578056E+02  0.19517329318E+03  0.82256519687E+02 0.  0.
          6    2    1    2  502    0  0.17293757066E+03  0.20625607368E+02  0.73467705084E+02  0.25619600149E+03  0.17293371117E+03 0.  0.
         24    2    5    5    0    0  0.15931837827E+03 -0.19854576523E+02  0.10174836961E+03  0.20475658396E+03  0.76131321361E+02 0.  0.
          2    1    6    6  501    0  0.54759654671E+02 -0.42987954936E+02  0.29698815104E+02  0.75687539714E+02  0.00000000000E+00 0. -1.
         -1    1    6    6    0  501  0.10455872360E+03  0.23133378413E+02  0.72049554507E+02  0.12906904425E+03  0.00000000000E+00 0.  1.
          5    1    5    5  502    0  0.13619192390E+02  0.40480183891E+02 -0.28280664527E+02  0.51439417525E+02  0.47000000000E+01 0. -1.
         11    1    4    4    0    0 -0.63987016632E+02 -0.58759530402E+00 -0.43915299834E+02  0.77609516976E+02  0.00000000000E+00 0. -1.
        -12    1    4    4    0    0 -0.10294500942E+03 -0.53145246145E+02  0.19978721778E+02  0.11756377621E+03  0.00000000000E+00 0.  1.
         -5    1    3    3    0  504 -0.60055446124E+01  0.33107234082E+02 -0.54006373941E+02  0.63803870893E+02  0.47000000000E+01 0.  1.
<mgrwt>
<rscale>  2 0.24658546E+03</rscale>
<asrwt>0</asrwt>
<pdfrwt beam="1">  1       21 0.39284456E-01 0.24696977E+03</pdfrwt>
<pdfrwt beam="2">  1       21 0.39972954E-01 0.24696977E+03</pdfrwt>
<totfact> 0.36709608E+04</totfact>
</mgrwt>
</event>
<event>
12    1  0.2791583E-001  0.2313069E+03  0.7546771E-02  0.1125762E+00
         21   -1    0    0  502  503  0.00000000000E+00  0.00000000000E+00  0.18189921914E+04  0.18189921914E+04  0.00000000000E+00 0. -1.
         21   -1    0    0  503  504 -0.00000000000E+00 -0.00000000000E+00 -0.48887990055E+02  0.48887990055E+02  0.00000000000E+00 0. -1.
         -6    2    1    2    0  504  0.12568946060E+03 -0.84882237720E+02  0.29492071256E+03  0.37467249125E+03  0.17435141013E+03 0.  0.
        -24    2    3    3    0    0  0.63842880756E+02 -0.37289065653E+02  0.52049433074E+02  0.11952810494E+03  0.78175677458E+02 0.  0.
          6    2    1    2  502    0 -0.12568946060E+03  0.84882237720E+02  0.14751834888E+04  0.14932076902E+04  0.17464262290E+03 0.  0.
         24    2    5    5    0    0 -0.75902317733E+02 -0.42809871500E+01  0.45607200567E+03  0.46898157002E+03  0.78501910639E+02 0.  0.
          4    1    6    6  501    0 -0.12290613783E+00  0.22440366417E+02  0.46872704070E+02  0.51967639332E+02  0.00000000000E+00 0. -1.
         -3    1    6    6    0  501 -0.75779411595E+02 -0.26721353567E+02  0.40919930160E+03  0.41701393069E+03  0.00000000000E+00 0.  1.
          5    1    5    5  502    0 -0.49787142864E+02  0.89163224870E+02  0.10191114832E+04  0.10242261202E+04  0.47000000000E+01 0. -1.
         13    1    4    4    0    0  0.35866387202E+02 -0.57214235426E+02  0.51922668375E+02  0.85181159639E+02  0.00000000000E+00 0. -1.
        -14    1    4    4    0    0  0.27976493554E+02  0.19925169772E+02  0.12676469920E+00  0.34346945298E+02  0.00000000000E+00 0.  1.
         -5    1    3    3    0  504  0.61846579842E+02 -0.47593172067E+02  0.24287127949E+03  0.25514438631E+03  0.47000000000E+01 0.  1.
<mgrwt>
<rscale>  2 0.23125193E+03</rscale>
<asrwt>0</asrwt>
<pdfrwt beam="1">  1       21 0.27984490E+00 0.23130690E+03</pdfrwt>
<pdfrwt beam="2">  1       21 0.75212307E-02 0.23130690E+03</pdfrwt>
<totfact> 0.57275173E+03</totfact>
</mgrwt>
</event>
<event>
12    1  0.2791583E-001  0.5362037E+03  0.7546771E-02  0.1004795E+00
         21   -1    0    0  502  503  0.00000000000E+00  0.00000000000E+00  0.88756032959E+03  0.88756032959E+03  0.00000000000E+00 0.  1.
         21   -1    0    0  503  504 -0.00000000000E+00 -0.00000000000E+00 -0.32730966299E+03  0.32730966299E+03  0.00000000000E+00 0. -1.
         -6    2    1    2    0  504 -0.46925257599E+03 -0.19211827284E+03  0.34699361958E+03  0.63868534643E+03  0.17437599858E+03 0.  0.
        -24    2    3    3    0    0 -0.19609267534E+03 -0.43990829420E+02  0.19990062934E+03  0.29485906966E+03  0.81203934365E+02 0.  0.
          6    2    1    2  502    0  0.46925257599E+03  0.19211827284E+03  0.21325704702E+03  0.57618464616E+03  0.17147235210E+03 0.  0.
         24    2    5    5    0    0  0.16632086236E+03  0.39638700965E+02  0.26874602843E+02  0.18917282663E+03  0.76356127358E+02 0.  0.
          2    1    6    6  501    0  0.16977261381E+03  0.25539466314E+02  0.19199673047E+02  0.17275309602E+03  0.00000000000E+00 0. -1.
         -1    1    6    6    0  501 -0.34517514491E+01  0.14099234651E+02  0.76749297961E+01  0.16419730606E+02  0.00000000000E+00 0.  1.
          5    1    5    5  502    0  0.30293171363E+03  0.15247957187E+03  0.18638244418E+03  0.38701181953E+03  0.47000000000E+01 0. -1.
         13    1    4    4    0    0 -0.16969693223E+02  0.63542811688E+01 -0.42784950407E+01  0.18618616948E+02  0.00000000000E+00 0. -1.
        -14    1    4    4    0    0 -0.17912298211E+03 -0.50345110589E+02  0.20417912438E+03  0.27624045271E+03  0.00000000000E+00 0.  1.
         -5    1    3    3    0  504 -0.27315990065E+03 -0.14812744342E+03  0.14709299025E+03  0.34382627677E+03  0.47000000000E+01 0.  1.
<mgrwt>
<rscale>  2 0.53596923E+03</rscale>
<asrwt>0</asrwt>
<pdfrwt beam="1">  1       21 0.13654774E+00 0.53620369E+03</pdfrwt>
<pdfrwt beam="2">  1       21 0.50355333E-01 0.53620369E+03</pdfrwt>
<totfact> 0.11789872E+03</totfact>
</mgrwt>
</event>
<event>
12    1  0.2791583E-001  0.2555166E+03  0.7546771E-02  0.1110496E+00
         21   -1    0    0  502  503  0.00000000000E+00  0.00000000000E+00  0.38352517578E+02  0.38352517578E+02  0.00000000000E+00 0. -1.
         21   -1    0    0  503  504 -0.00000000000E+00 -0.00000000000E+00 -0.20160626121E+04  0.20160626121E+04  0.00000000000E+00 0.  1.
         -6    2    1    2    0  504  0.13896341269E+03  0.12442171261E+03 -0.14176522321E+04  0.14404952578E+04  0.17463431493E+03 0.  0.
        -24    2    3    3    0    0  0.14899221950E+03  0.11221913941E+03 -0.86987314591E+03  0.89246834512E+03  0.70912906799E+02 0.  0.
          6    2    1    2  502    0 -0.13896341269E+03 -0.12442171261E+03 -0.56005786249E+03  0.61391987194E+03  0.16864521099E+03 0.  0.
         24    2    5    5    0    0 -0.12384920715E+03 -0.14947303206E+03 -0.53597114316E+03  0.57573259836E+03  0.80759798746E+02 0.  0.
          2    1    6    6  501    0 -0.23554096320E+02 -0.86496834274E+02 -0.27255064402E+03  0.28691523374E+03  0.00000000000E+00 0. -1.
         -1    1    6    6    0  501 -0.10029511083E+03 -0.62976197783E+02 -0.26342049913E+03  0.28881736462E+03  0.00000000000E+00 0.  1.
          5    1    5    5  502    0 -0.15114205534E+02  0.25051319450E+02 -0.24086719335E+02  0.38187273580E+02  0.47000000000E+01 0. -1.
         11    1    4    4    0    0  0.11586814962E+03  0.11608474990E+03 -0.66682825987E+03  0.68670301107E+03  0.00000000000E+00 0. -1.
        -12    1    4    4    0    0  0.33124069883E+02 -0.38656104901E+01 -0.20304488604E+03  0.20576533405E+03  0.00000000000E+00 0.  1.
         -5    1    3    3    0  504 -0.10028806813E+02  0.12202573198E+02 -0.54777908616E+03  0.54802691265E+03  0.47000000000E+01 0.  1.
<mgrwt>
<rscale>  2 0.25449670E+03</rscale>
<asrwt>0</asrwt>
<pdfrwt beam="1">  1       21 0.59003872E-02 0.25551661E+03</pdfrwt>
<pdfrwt beam="2">  1       21 0.31016349E+00 0.25551661E+03</pdfrwt>
<totfact> 0.56781184E+03</totfact>
</mgrwt>
</event>
<event>
12    1  0.2791583E-001  0.4075342E+03  0.7546771E-02  0.1041215E+00
         21   -1    0    0  502  503  0.00000000000E+00  0.00000000000E+00  0.19525686255E+04  0.19525686255E+04  0.00000000000E+00 0. -1.
         21   -1    0    0  503  504 -0.00000000000E+00 -0.00000000000E+00 -0.16709439497E+03  0.16709439497E+03  0.00000000000E+00 0. -1.
         -6    2    1    2    0  504 -0.19360987825E+03  0.31435630378E+03  0.16355809173E+04  0.16855886287E+04  0.17256713872E+03 0.  0.
        -24    2    3    3    0    0 -0.12817788832E+03  0.14748012273E+03  0.11238077244E+04  0.11433129644E+04  0.77722425568E+02 0.  0.
          6    2    1    2  502    0  0.19360987825E+03 -0.31435630378E+03  0.14989331322E+03  0.43407439179E+03  0.17218566020E+03 0.  0.
         24    2    5    5    0    0  0.82305003521E+02 -0.24231194076E+03  0.13629494370E+03  0.30070958745E+03  0.79754335743E+02 0.  0.
          2    1    6    6  501    0 -0.14129884915E+02 -0.47062823917E+02  0.14670623828E+02  0.51281480539E+02  0.00000000000E+00 0. -1.
         -1    1    6    6    0  501  0.96434888436E+02 -0.19524911684E+03  0.12162431987E+03  0.24942810692E+03  0.00000000000E+00 0.  1.
          5    1    5    5  502    0  0.11130487473E+03 -0.72044363022E+02  0.13598369521E+02  0.13336480434E+03  0.47000000000E+01 0. -1.
         13    1    4    4    0    0 -0.10849738305E+03  0.15482185208E+03  0.99446749209E+03  0.10122781638E+04  0.00000000000E+00 0. -1.
        -14    1    4    4    0    0 -0.19680505273E+02 -0.73417293489E+01  0.12934023233E+03  0.13103480063E+03  0.00000000000E+00 0.  1.
         -5    1    3    3    0  504 -0.65431989928E+02  0.16687618105E+03  0.51177319291E+03  0.54227566430E+03  0.47000000000E+01 0.  1.
<mgrwt>
<rscale>  2 0.40749380E+03</rscale>
<asrwt>0</asrwt>
<pdfrwt beam="1">  1       21 0.30039516E+00 0.40753416E+03</pdfrwt>
<pdfrwt beam="2">  1       21 0.25706831E-01 0.40753416E+03</pdfrwt>
<totfact> 0.39692376E+02</totfact>
</mgrwt>
</event>
<event>
12    1  0.2791583E-001  0.2699028E+03  0.7546771E-02  0.1102999E+00
         21   -1    0    0  502  503  0.00000000000E+00  0.00000000000E+00  0.79380910343E+02  0.79380910343E+02  0.00000000000E+00 0.  1.
         21   -1    0    0  503  504 -0.00000000000E+00 -0.00000000000E+00 -0.92346031241E+03  0.92346031241E+03  0.00000000000E+00 0. -1.
         -6    2    1    2    0  504 -0.97752369401E+02  0.16488494276E+03 -0.30399182474E+03  0.39906797119E+03  0.17349825949E+03 0.  0.
        -24    2    3    3    0    0 -0.92621976969E+02  0.36968595986E+02 -0.11875221387E+03  0.17384648879E+03  0.78581204226E+02 0.  0.
          6    2    1    2  502    0  0.97752369401E+02 -0.16488494276E+03 -0.54008757732E+03  0.60377325156E+03  0.19001309968E+03 0.  0.
         24    2    5    5    0    0  0.73145353171E+02 -0.19498933713E+03 -0.49870432486E+03  0.54679568236E+03  0.83116967730E+02 0.  0.
          2    1    6    6  501    0  0.86279055342E+02 -0.12686926153E+03 -0.37079706093E+03  0.40128586482E+03  0.00000000000E+00 0. -1.
         -1    1    6    6    0  501 -0.13133702171E+02 -0.68120075608E+02 -0.12790726394E+03  0.14550981754E+03  0.00000000000E+00 0.  1.
          5    1    5    5  502    0  0.24607016230E+02  0.30104394370E+02 -0.41383252464E+02  0.56977569206E+02  0.47000000000E+01 0. -1.
         11    1    4    4    0    0 -0.48589602942E+02 -0.18213235289E+02 -0.73571258750E+02  0.90030003708E+02  0.00000000000E+00 0. -1.
        -12    1    4    4    0    0 -0.44032374027E+02  0.55181831275E+02 -0.45180955124E+02  0.83816485081E+02  0.00000000000E+00 0.  1.
         -5    1    3    3    0  504 -0.51303924324E+01  0.12791634678E+03 -0.18523961087E+03  0.22522148240E+03  0.47000000000E+01 0.  1.
<mgrwt>
<rscale>  2 0.26701680E+03</rscale>
<asrwt>0</asrwt>
<pdfrwt beam="1">  1       21 0.12212447E-01 0.26990285E+03</pdfrwt>
<pdfrwt beam="2">  1       21 0.14207082E+00 0.26990285E+03</pdfrwt>
<totfact> 0.18725506E+04</totfact>
</mgrwt>
</event>
<event>
12    1  0.2791583E-001  0.1900439E+03  0.7546771E-02  0.1158805E+00
         21   -1    0    0  502  503  0.00000000000E+00  0.00000000000E+00  0.76055793274E+03  0.76055793274E+03  0.00000000000E+00 0. -1.
         21   -1    0    0  503  504 -0.00000000000E+00 -0.00000000000E+00 -0.48811574601E+02  0.48811574601E+02  0.00000000000E+00 0.  1.
         -6    2    1    2    0  504 -0.71647955435E+02  0.32326773053E+02  0.28087020880E+03  0.33912350919E+03  0.17302667575E+03 0.  0.
        -24    2    3    3    0    0 -0.39996612166E+02 -0.39178830344E+02  0.21677057195E+03  0.23790240323E+03  0.80457211399E+02 0.  0.
          6    2    1    2  502    0  0.71647955435E+02 -0.32326773053E+02  0.43087614934E+03  0.47024599815E+03  0.17116831755E+03 0.  0.
         24    2    5    5    0    0  0.12366965374E+02 -0.62704325570E+02  0.14999864980E+03  0.18153976125E+03  0.79826785570E+02 0.  0.
          2    1    6    6  501    0  0.30873873711E+02 -0.72476632309E+02  0.13298843583E+03  0.15457031531E+03  0.00000000000E+00 0. -1.
         -1    1    6    6    0  501 -0.18506908337E+02  0.97723067388E+01  0.17010213970E+02  0.26969445943E+02  0.00000000000E+00 0.  1.
          5    1    5    5  502    0  0.59280990061E+02  0.30377552518E+02  0.28087749953E+03  0.28870623690E+03  0.47000000000E+01 0. -1.
         11    1    4    4    0    0 -0.60155940860E+02 -0.15357494603E+02  0.10623988351E+03  0.12305081352E+03  0.00000000000E+00 0. -1.
        -12    1    4    4    0    0  0.20159328694E+02 -0.23821335741E+02  0.11053068844E+03  0.11485158971E+03  0.00000000000E+00 0.  1.
         -5    1    3    3    0  504 -0.31651343269E+02  0.71505603396E+02  0.64099636849E+02  0.10122110596E+03  0.47000000000E+01 0.  1.
<mgrwt>
<rscale>  2 0.18961988E+03</rscale>
<asrwt>0</asrwt>
<pdfrwt beam="1">  1       21 0.11700890E+00 0.19004389E+03</pdfrwt>
<pdfrwt beam="2">  1       21 0.75094736E-02 0.19004389E+03</pdfrwt>
<totfact> 0.75368935E+04</totfact>
</mgrwt>
</event>
<event>
12    1  0.2791583E-001  0.1731426E+03  0.7546771E-02  0.1176882E+00
         21   -1    0    0  502  503  0.00000000000E+00  0.00000000000E+00  0.19604028890E+02  0.19604028890E+02  0.00000000000E+00 0.  1.
         21   -1    0    0  503  504 -0.00000000000E+00 -0.00000000000E+00 -0.15652365029E+04  0.15652365029E+04  0.00000000000E+00 0.  1.
         -6    2    1    2    0  504  0.96833976397E+01  0.25096571538E+01 -0.10029828057E+04  0.10178176971E+04  0.17285337537E+03 0.  0.
        -24    2    3    3    0    0 -0.59813530913E+02 -0.12217460004E+02 -0.61163839038E+03  0.62004985969E+03  0.81445583678E+02 0.  0.
          6    2    1    2  502    0 -0.96833976397E+01 -0.25096571538E+01 -0.54264966832E+03  0.56702283472E+03  0.16415287388E+03 0.  0.
         24    2    5    5    0    0 -0.47692629250E+02 -0.55578354493E+01 -0.18467598715E+03  0.20699333665E+03  0.80221847187E+02 0.  0.
          2    1    6    6  501    0 -0.12747714676E+02 -0.35966187041E+02 -0.40887269907E+02  0.55927092542E+02  0.00000000000E+00 0. -1.
         -1    1    6    6    0  501 -0.34944914574E+02  0.30408351592E+02 -0.14378871725E+03  0.15106624411E+03  0.00000000000E+00 0.  1.
          5    1    5    5  502    0  0.38009231610E+02  0.30481782955E+01 -0.35797368116E+03  0.36002949808E+03  0.47000000000E+01 0. -1.
         11    1    4    4    0    0 -0.19408827366E+02 -0.31924308493E+02 -0.10552102014E+03  0.11193993811E+03  0.00000000000E+00 0. -1.
        -12    1    4    4    0    0 -0.40404703547E+02  0.19706848489E+02 -0.50611737025E+03  0.50810992158E+03  0.00000000000E+00 0.  1.
         -5    1    3    3    0  504  0.69496928553E+02  0.14727117158E+02 -0.39134441535E+03  0.39776783742E+03  0.47000000000E+01 0.  1.
<mgrwt>
<rscale>  2 0.17092921E+03</rscale>
<asrwt>0</asrwt>
<pdfrwt beam="1">  1       21 0.30160049E-02 0.17314259E+03</pdfrwt>
<pdfrwt beam="2">  1       21 0.24080558E+00 0.17314259E+03</pdfrwt>
<totfact> 0.47982017E+04</totfact>
</mgrwt>
</event>
<event>
12    1  0.2791583E-001  0.1848467E+03  0.7546771E-02  0.1163293E+00
         21   -1    0    0  502  503  0.00000000000E+00  0.00000000000E+00  0.44099229498E+02  0.44099229498E+02  0.00000000000E+00 0. -1.
         21   -1    0    0  503  504 -0.00000000000E+00 -0.00000000000E+00 -0.94337786659E+03  0.94337786659E+03  0.00000000000E+00 0.  1.
         -6    2    1    2    0  504  0.67402242859E+02  0.73619582018E+01 -0.24024627137E+03  0.30312798289E+03  0.17196232824E+03 0.  0.
        -24    2    3    3    0    0  0.59522516350E+02 -0.59445400193E+02 -0.14064660115E+03  0.18284707197E+03  0.81085755560E+02 0.  0.
          6    2    1    2  502    0 -0.67402242859E+02 -0.73619582018E+01 -0.65903236572E+03  0.68434911320E+03  0.17150157110E+03 0.  0.
         24    2    5    5    0    0  0.24261427346E+02  0.13710348549E+02 -0.38369017586E+03  0.39334794127E+03  0.82023541323E+02 0.  0.
          2    1    6    6  501    0  0.33487756606E+02  0.13539778046E+02 -0.63730731550E+02  0.73255454240E+02  0.00000000000E+00 0. -1.
         -1    1    6    6    0  501 -0.92263292606E+01  0.17057050327E+00 -0.31995944431E+03  0.32009248703E+03  0.00000000000E+00 0.  1.
          5    1    5    5  502    0 -0.91663670204E+02 -0.21072306751E+02 -0.27534218986E+03  0.29100117193E+03  0.47000000000E+01 0. -1.
         13    1    4    4    0    0  0.46944763064E+02 -0.23637998629E+02 -0.13449391707E+03  0.14439937495E+03  0.00000000000E+00 0. -1.
        -14    1    4    4    0    0  0.12577753286E+02 -0.35807401564E+02 -0.61526840864E+01  0.38447697017E+02  0.00000000000E+00 0.  1.
         -5    1    3    3    0  504  0.78797265090E+01  0.66807358394E+02 -0.99599670218E+02  0.12028091093E+03  0.47000000000E+01 0.  1.
<mgrwt>
<rscale>  2 0.18473947E+03</rscale>
<asrwt>0</asrwt>
<pdfrwt beam="1">  1       21 0.67844977E-02 0.18484670E+03</pdfrwt>
<pdfrwt beam="2">  1       21 0.14513504E+00 0.18484670E+03</pdfrwt>
<totfact> 0.52248572E+04</totfact>
</mgrwt>
</event>
<event>
12    1  0.2791583E-001  0.2792033E+03  0.7546771E-02  0.1096640E+00
         21   -1    0    0  502  503  0.00000000000E+00  0.00000000000E+00  0.69961576810E+03  0.69961576810E+03  0.00000000000E+00 0. -1.
         21   -1    0    0  503  504 -0.00000000000E+00 -0.00000000000E+00 -0.18998777938E+03  0.18998777938E+03  0.00000000000E+00 0. -1.
         -6    2    1    2    0  504 -0.21817329585E+03  0.44441858055E+00 -0.32909913658E+02  0.28113620559E+03  0.17422605760E+03 0.  0.
        -24    2    3    3    0    0 -0.11739353977E+03  0.63579927642E+02  0.40621373346E+01  0.15651006750E+03  0.81579714946E+02 0.  0.
          6    2    1    2  502    0  0.21817329585E+03 -0.44441858055E+00  0.54253790238E+03  0.60846734189E+03  0.16818247856E+03 0.  0.
         24    2    5    5    0    0  0.55648221204E+02  0.40239753010E+02  0.17820105655E+03  0.20742740755E+03  0.80960179106E+02 0.  0.
          2    1    6    6  501    0  0.48413105854E+02  0.25287958852E+02  0.18231019224E+03  0.19031635735E+03  0.00000000000E+00 0. -1.
         -1    1    6    6    0  501  0.72351153497E+01  0.14951794158E+02 -0.41091356898E+01  0.17111050195E+02  0.00000000000E+00 0.  1.
          5    1    5    5  502    0  0.16252507465E+03 -0.40684171590E+02  0.36433684583E+03  0.40103993434E+03  0.47000000000E+01 0. -1.
         11    1    4    4    0    0 -0.10342483920E+03  0.16967469385E+02 -0.11464221704E+02  0.10543254128E+03  0.00000000000E+00 0. -1.
        -12    1    4    4    0    0 -0.13968700574E+02  0.46612458256E+02  0.15526359039E+02  0.51077526227E+02  0.00000000000E+00 0.  1.
         -5    1    3    3    0  504 -0.10077975608E+03 -0.63135509061E+02 -0.36972050992E+02  0.12462613809E+03  0.47000000000E+01 0.  1.
<mgrwt>
<rscale>  2 0.27826593E+03</rscale>
<asrwt>0</asrwt>
<pdfrwt beam="1">  1       21 0.10763319E+00 0.27920334E+03</pdfrwt>
<pdfrwt beam="2">  1       21 0.29228890E-01 0.27920334E+03</pdfrwt>
<totfact> 0.73022916E+03</totfact>
</mgrwt>
</event>
<event>
12    1  0.2791583E-001  0.2117359E+03  0.7546771E-02  0.1140282E+00
         21   -1    0    0  502  503  0.00000000000E+00  0.00000000000E+00  0.87906828577E+03  0.87906828577E+03  0.00000000000E+00 0.  1.
         21   -1    0    0  503  504 -0.00000000000E+00 -0.00000000000E+00 -0.71255812400E+02  0.71255812400E+02  0.00000000000E+00 0.  1.
         -6    2    1    2    0  504  0.80842496670E+02 -0.91843571979E+02  0.15021091187E+03  0.25960622125E+03  0.17280428550E+03 0.  0.
        -24    2    3    3    0    0  0.11229233102E+03 -0.38054145317E+02  0.11776804145E+03  0.18920008273E+03  0.88711183818E+02 0.  0.
          6    2    1    2  502    0 -0.80842496670E+02  0.91843571979E+02  0.65760156150E+03  0.69071787692E+03  0.17228064553E+03 0.  0.
         24    2    5    5    0    0 -0.16955009727E+01  0.39115060249E+02  0.48109497667E+03  0.49016562097E+03  0.85305900979E+02 0.  0.
          2    1    6    6  501    0  0.27706209729E+02  0.20924445173E+02  0.75510430433E+02  0.83110117119E+02  0.00000000000E+00 0. -1.
         -1    1    6    6    0  501 -0.29401710702E+02  0.18190615076E+02  0.40558454624E+03  0.40705550385E+03  0.00000000000E+00 0.  1.
          5    1    5    5  502    0 -0.79146995697E+02  0.52728511731E+02  0.17650658483E+03  0.20055225595E+03  0.47000000000E+01 0. -1.
         13    1    4    4    0    0  0.78872227832E+02 -0.42047462942E-01  0.11375959883E+03  0.13842715202E+03  0.00000000000E+00 0. -1.
        -14    1    4    4    0    0  0.33420103187E+02 -0.38012097854E+02  0.40084426275E+01  0.50772930707E+02  0.00000000000E+00 0.  1.
         -5    1    3    3    0  504 -0.31449834348E+02 -0.53789426663E+02  0.32442870412E+02  0.70406138524E+02  0.47000000000E+01 0.  1.
<mgrwt>
<rscale>  2 0.21162899E+03</rscale>
<asrwt>0</asrwt>
<pdfrwt beam="1">  1       21 0.13524127E+00 0.21173585E+03</pdfrwt>
<pdfrwt beam="2">  1       21 0.10962433E-01 0.21173585E+03</pdfrwt>
<totfact> 0.26650643E+04</totfact>
</mgrwt>
</event>
<event>
12    1  0.2791583E-001  0.3069651E+03  0.7546771E-02  0.1081823E+00
         21   -1    0    0  502  503  0.00000000000E+00  0.00000000000E+00  0.17268022992E+03  0.17268022992E+03  0.00000000000E+00 0.  1.
         21   -1    0    0  503  504 -0.00000000000E+00 -0.00000000000E+00 -0.67399392216E+03  0.67399392216E+03  0.00000000000E+00 0. -1.
         -6    2    1    2    0  504  0.19795298464E+03 -0.15827436917E+03 -0.43547490083E+03  0.53272777774E+03  0.17298651929E+03 0.  0.
        -24    2    3    3    0    0  0.43922319024E+02 -0.15594662468E+02 -0.18950495909E+03  0.20929888773E+03  0.75640804317E+02 0.  0.
          6    2    1    2  502    0 -0.19795298464E+03  0.15827436917E+03 -0.65838791408E+02  0.31394637435E+03  0.17318030907E+03 0.  0.
         24    2    5    5    0    0 -0.20067406858E+03  0.15400464204E+03 -0.18789420387E+02  0.26639252928E+03  0.81390575412E+02 0.  0.
          2    1    6    6  501    0 -0.20445944940E+03  0.13548689854E+03 -0.98226499268E+01  0.24547270841E+03  0.00000000000E+00 0. -1.
         -1    1    6    6    0  501  0.37853808223E+01  0.18517743503E+02 -0.89667704601E+01  0.20919820862E+02  0.00000000000E+00 0.  1.
          5    1    5    5  502    0  0.27210839441E+01  0.42697271327E+01 -0.47049371021E+02  0.47553845072E+02  0.47000000000E+01 0. -1.
         11    1    4    4    0    0 -0.17500900160E+02  0.79616662776E+01 -0.21337903559E+02  0.28722391346E+02  0.00000000000E+00 0. -1.
        -12    1    4    4    0    0  0.61423219184E+02 -0.23556328746E+02 -0.16816705553E+03  0.18057649638E+03  0.00000000000E+00 0.  1.
         -5    1    3    3    0  504  0.15403066561E+03 -0.14267970670E+03 -0.24596994174E+03  0.32342889001E+03  0.47000000000E+01 0.  1.
<mgrwt>
<rscale>  2 0.30693779E+03</rscale>
<asrwt>0</asrwt>
<pdfrwt beam="1">  1       21 0.26566189E-01 0.30696511E+03</pdfrwt>
<pdfrwt beam="2">  1       21 0.10369137E+00 0.30696511E+03</pdfrwt>
<totfact> 0.95052177E+03</totfact>
</mgrwt>
</event>
<event>
12    1  0.2791583E-001  0.1994682E+03  0.7546771E-02  0.1151475E+00
         21   -1    0    0  502  503  0.00000000000E+00  0.00000000000E+00  0.77554366860E+03  0.77554366860E+03  0.00000000000E+00 0.  1.
         21   -1    0    0  503  504 -0.00000000000E+00 -0.00000000000E+00 -0.94128384924E+02  0.94128384924E+02  0.00000000000E+00 0.  1.
         -6    2    1    2    0  504 -0.95803522692E+02  0.29598217875E+02  0.39498212589E+02  0.19747781313E+03  0.16547812067E+03 0.  0.
        -24    2    3    3    0    0 -0.73746922325E+02  0.69230566002E+02  0.65335404030E+02  0.14506725027E+03  0.80896923675E+02 0.  0.
          6    2    1    2  502    0  0.95803522692E+02 -0.29598217875E+02  0.64191707108E+03  0.67219424039E+03  0.17243317895E+03 0.  0.
         24    2    5    5    0    0  0.12329023435E+02 -0.52648299551E+02  0.20879721982E+03  0.23047691692E+03  0.81237195701E+02 0.  0.
          4    1    6    6  501    0  0.47002235677E+01 -0.37278168388E+02  0.23350429083E+02  0.44237952917E+02  0.00000000000E+00 0. -1.
         -3    1    6    6    0  501  0.76287998673E+01 -0.15370131163E+02  0.18544679074E+03  0.18623896401E+03  0.00000000000E+00 0.  1.
          5    1    5    5  502    0  0.83474499257E+02  0.23050081676E+02  0.43311985126E+03  0.44171732346E+03  0.47000000000E+01 0. -1.
         13    1    4    4    0    0  0.14594527942E+02  0.58488095745E+01  0.24117770428E+02  0.28790200932E+02  0.00000000000E+00 0. -1.
        -14    1    4    4    0    0 -0.88341450267E+02  0.63381756427E+02  0.41217633602E+02  0.11627704934E+03  0.00000000000E+00 0.  1.
         -5    1    3    3    0  504 -0.22056600367E+02 -0.39632348127E+02 -0.25837191441E+02  0.52410562861E+02  0.47000000000E+01 0.  1.
<mgrwt>
<rscale>  2 0.19795591E+03</rscale>
<asrwt>0</asrwt>
<pdfrwt beam="1">  1       21 0.11931441E+00 0.19946822E+03</pdfrwt>
<pdfrwt beam="2">  1       21 0.14481291E-01 0.19946822E+03</pdfrwt>
<totfact> 0.22305969E+04</totfact>
</mgrwt>
</event>
<event>
12    1  0.2791583E-001  0.1935232E+03  0.7546771E-02  0.1155836E+00
         21   -1    0    0  502  503  0.00000000000E+00  0.00000000000E+00  0.42466497215E+03  0.42466497215E+03  0.00000000000E+00 0. -1.
         21   -1    0    0  503  504 -0.00000000000E+00 -0.00000000000E+00 -0.18271036771E+03  0.18271036771E+03  0.00000000000E+00 0. -1.
         -6    2    1    2    0  504  0.42832261384E+02  0.71321587111E+02 -0.98316062037E+02  0.21706517971E+03  0.17472799656E+03 0.  0.
        -24    2    3    3    0    0 -0.34340510100E+02  0.84223112515E+01 -0.18516656067E+02  0.89385930197E+02  0.79979822484E+02 0.  0.
          6    2    1    2  502    0 -0.42832261384E+02 -0.71321587111E+02  0.34027066647E+03  0.39031016015E+03  0.17215261617E+03 0.  0.
         24    2    5    5    0    0 -0.53115664037E+02  0.63171147447E+01  0.26293449773E+03  0.28014442414E+03  0.80530544355E+02 0.  0.
          2    1    6    6  501    0 -0.16116378775E+02  0.94083424185E+01  0.22926482756E+03  0.23002307651E+03  0.00000000000E+00 0. -1.
         -1    1    6    6    0  501 -0.36999285263E+02 -0.30912276738E+01  0.33669670170E+02  0.50121347626E+02  0.00000000000E+00 0.  1.
          5    1    5    5  502    0  0.10283402653E+02 -0.77638701856E+02  0.77336168741E+02  0.11016573601E+03  0.47000000000E+01 0. -1.
         11    1    4    4    0    0  0.23453284611E+02  0.58089047398E+01 -0.20222510224E+02  0.31507933177E+02  0.00000000000E+00 0. -1.
        -12    1    4    4    0    0 -0.57793794711E+02  0.26134065118E+01  0.17058541568E+01  0.57877997020E+02  0.00000000000E+00 0.  1.
         -5    1    3    3    0  504  0.77172771484E+02  0.62899275860E+02 -0.79799405970E+02  0.12767924951E+03  0.47000000000E+01 0.  1.
<mgrwt>
<rscale>  2 0.19294010E+03</rscale>
<asrwt>0</asrwt>
<pdfrwt beam="1">  1       21 0.65333073E-01 0.19352324E+03</pdfrwt>
<pdfrwt beam="2">  1       21 0.28109287E-01 0.19352324E+03</pdfrwt>
<totfact> 0.26051693E+04</totfact>
</mgrwt>
</event>
<event>
12    1  0.2791583E-001  0.2426546E+03  0.7546771E-02  0.1118401E+00
         21   -1    0    0  502  503  0.00000000000E+00  0.00000000000E+00  0.69954700444E+03  0.69954700444E+03  0.00000000000E+00 0.  1.
         21   -1    0    0  503  504 -0.00000000000E+00 -0.00000000000E+00 -0.32740009036E+03  0.32740009036E+03  0.00000000000E+00 0.  1.
         -6    2    1    2    0  504 -0.14109793567E+02 -0.16688466013E+03 -0.25741091268E+03  0.35224395446E+03  0.17252782218E+03 0.  0.
        -24    2    3    3    0    0 -0.43111328322E+02 -0.96071259684E+02 -0.71296763975E+02  0.15095760855E+03  0.81343084891E+02 0.  0.
          6    2    1    2  502    0  0.14109793567E+02  0.16688466013E+03  0.62955782676E+03  0.67470314034E+03  0.17558956205E+03 0.  0.
         24    2    5    5    0    0  0.31795798821E+02  0.40398782561E+02  0.14413237325E+03  0.17273557873E+03  0.80127427787E+02 0.  0.
          4    1    6    6  501    0  0.70277669522E+01 -0.16429231746E+02  0.85710672088E+02  0.87553574878E+02  0.00000000000E+00 0. -1.
         -3    1    6    6    0  501  0.24768031869E+02  0.56828014307E+02  0.58421701162E+02  0.85182003847E+02  0.00000000000E+00 0.  1.
          5    1    5    5  502    0 -0.17686005254E+02  0.12648587756E+03  0.48542545351E+03  0.50196756162E+03  0.47000000000E+01 0. -1.
         13    1    4    4    0    0 -0.64939118277E+01 -0.95608454153E+02 -0.57908205390E+02  0.11196654700E+03  0.00000000000E+00 0. -1.
        -14    1    4    4    0    0 -0.36617416495E+02 -0.46280553008E+00 -0.13388558584E+02  0.38991061548E+02  0.00000000000E+00 0.  1.
         -5    1    3    3    0  504  0.29001534756E+02 -0.70813400442E+02 -0.18611414871E+03  0.20128634591E+03  0.47000000000E+01 0.  1.
<mgrwt>
<rscale>  2 0.24210118E+03</rscale>
<asrwt>0</asrwt>
<pdfrwt beam="1">  1       21 0.10762262E+00 0.24265463E+03</pdfrwt>
<pdfrwt beam="2">  1       21 0.50369245E-01 0.24265463E+03</pdfrwt>
<totfact> 0.24810137E+03</totfact>
</mgrwt>
</event>
<event>
12    1  0.2791583E-001  0.2760038E+03  0.7546771E-02  0.1097925E+00
         21   -1    0    0  502  503  0.00000000000E+00  0.00000000000E+00  0.11311625679E+03  0.11311625679E+03  0.00000000000E+00 0.  1.
         21   -1    0    0  503  504 -0.00000000000E+00 -0.00000000000E+00 -0.69908912807E+03  0.69908912807E+03  0.00000000000E+00 0. -1.
         -6    2    1    2    0  504 -0.15465840582E+03  0.14883147585E+03 -0.37152138227E+03  0.46268068956E+03  0.17313362559E+03 0.  0.
        -24    2    3    3    0    0 -0.92475200947E+02  0.16864216437E+03 -0.28558106878E+03  0.35466660793E+03  0.85088269107E+02 0.  0.
          6    2    1    2  502    0  0.15465840582E+03 -0.14883147585E+03 -0.21445148900E+03  0.34952469530E+03  0.17351668738E+03 0.  0.
         24    2    5    5    0    0  0.14219062439E+03 -0.15424359607E+03 -0.12141480488E+03  0.25538304028E+03  0.80434332366E+02 0.  0.
          4    1    6    6  501    0  0.60883927177E+02 -0.64532475554E+02 -0.73220721491E+01  0.89021939600E+02  0.00000000000E+00 0. -1.
         -3    1    6    6    0  501  0.81306697216E+02 -0.89711120517E+02 -0.11409273273E+03  0.16636110068E+03  0.00000000000E+00 0.  1.
          5    1    5    5  502    0  0.12467781422E+02  0.54121202209E+01 -0.93036684121E+02  0.94141655027E+02  0.47000000000E+01 0. -1.
         13    1    4    4    0    0 -0.96621291204E+01  0.68505448529E+02 -0.49100980886E+02  0.84836663897E+02  0.00000000000E+00 0. -1.
        -14    1    4    4    0    0 -0.82813071827E+02  0.10013671584E+03 -0.23648008790E+03  0.26982994403E+03  0.00000000000E+00 0.  1.
         -5    1    3    3    0  504 -0.62183204869E+02 -0.19810688518E+02 -0.85940313489E+02  0.10801408163E+03  0.47000000000E+01 0.  1.
<mgrwt>
<rscale>  2 0.27594357E+03</rscale>
<asrwt>0</asrwt>
<pdfrwt beam="1">  1       21 0.17402501E-01 0.27600375E+03</pdfrwt>
<pdfrwt beam="2">  1       21 0.10755217E+00 0.27600375E+03</pdfrwt>
<totfact> 0.19696630E+04</totfact>
</mgrwt>
</event>
<event>
12    1  0.2791583E-001  0.2301525E+03  0.7546771E-02  0.1126684E+00
         21   -1    0    0  502  503  0.00000000000E+00  0.00000000000E+00  0.22471895906E+04  0.22471895906E+04  0.00000000000E+00 0.  1.
         21   -1    0    0  503  504 -0.00000000000E+00 -0.00000000000E+00 -0.34620155971E+02  0.34620155971E+02  0.00000000000E+00 0. -1.
         -6    2    1    2    0  504 -0.15195665158E+03 -0.63621807240E+00  0.45779231919E+03  0.51200385532E+03  0.17170588696E+03 0.  0.
        -24    2    3    3    0    0 -0.12842576490E+03  0.57761757218E+02  0.36934267966E+03  0.40333253951E+03  0.80209255848E+02 0.  0.
          6    2    1    2  502    0  0.15195665158E+03  0.63621807240E+00  0.17547771154E+04  0.17698058912E+04  0.17285525482E+03 0.  0.
         24    2    5    5    0    0  0.99839415598E+02  0.40661265392E+02  0.15193004603E+04  0.15252868617E+04  0.81270378336E+02 0.  0.
          2    1    6    6  501    0  0.11467482816E+02  0.33981556453E+02  0.21427712443E+03  0.21725776256E+03  0.00000000000E+00 0. -1.
         -1    1    6    6    0  501  0.88371932782E+02  0.66797089391E+01  0.13050233359E+04  0.13080290991E+04  0.00000000000E+00 0.  1.
          5    1    5    5  502    0  0.52117235978E+02 -0.40025047319E+02  0.23547665514E+03  0.24451902955E+03  0.47000000000E+01 0. -1.
         11    1    4    4    0    0 -0.10919565383E+02  0.24959160875E+02  0.21466913566E+02  0.34684650752E+02  0.00000000000E+00 0. -1.
        -12    1    4    4    0    0 -0.11750619952E+03  0.32802596343E+02  0.34787576609E+03  0.36864788876E+03  0.00000000000E+00 0.  1.
         -5    1    3    3    0  504 -0.23530886672E+02 -0.58397975290E+02  0.88449639535E+02  0.10867131581E+03  0.47000000000E+01 0.  1.
<mgrwt>
<rscale>  2 0.22993669E+03</rscale>
<asrwt>0</asrwt>
<pdfrwt beam="1">  1       21 0.34572136E+00 0.23015249E+03</pdfrwt>
<pdfrwt beam="2">  1       21 0.53261796E-02 0.23015249E+03</pdfrwt>
<totfact> 0.42828829E+03</totfact>
</mgrwt>
</event>
<event>
12    1  0.2791583E-001  0.1880474E+03  0.7546771E-02  0.1160546E+00
         21   -1    0    0  502  503  0.00000000000E+00  0.00000000000E+00  0.52583042703E+02  0.52583042703E+02  0.00000000000E+00 0. -1.
         21   -1    0    0  503  504 -0.00000000000E+00 -0.00000000000E+00 -0.31962415347E+04  0.31962415347E+04  0.00000000000E+00 0. -1.
         -6    2    1    2    0  504 -0.60613958172E+02  0.38494868068E+02 -0.30178439881E+04  0.30236970995E+04  0.17379846487E+03 0.  0.
        -24    2    3    3    0    0  0.15576495937E+02  0.46753408142E+02 -0.10180763638E+04  0.10224560271E+04  0.80674261219E+02 0.  0.
          6    2    1    2  502    0  0.60613958172E+02 -0.38494868068E+02 -0.12581450394E+03  0.22512747792E+03  0.17232871241E+03 0.  0.
         24    2    5    5    0    0 -0.13771912049E+02 -0.23486159919E+02 -0.10830786659E+03  0.14710766403E+03  0.95753880242E+02 0.  0.
          4    1    6    6  501    0 -0.12336799718E+02 -0.78664234862E+01 -0.12403532364E+03  0.12489531118E+03  0.00000000000E+00 0. -1.
         -3    1    6    6    0  501 -0.14351123308E+01 -0.15619736432E+02  0.15727457049E+02  0.22212352844E+02  0.00000000000E+00 0.  1.
          5    1    5    5  502    0  0.74385870221E+02 -0.15008708150E+02 -0.17506637356E+02  0.78019813896E+02  0.47000000000E+01 0. -1.
         13    1    4    4    0    0 -0.29122098778E+02  0.29553624854E+02 -0.31038743543E+03  0.31314832500E+03  0.00000000000E+00 0. -1.
        -14    1    4    4    0    0  0.44698594715E+02  0.17199783287E+02 -0.70768892842E+03  0.70930770215E+03  0.00000000000E+00 0.  1.
         -5    1    3    3    0  504 -0.76190454109E+02 -0.82585400732E+01 -0.19997676242E+04  0.20012410724E+04  0.47000000000E+01 0.  1.
<mgrwt>
<rscale>  2 0.18770706E+03</rscale>
<asrwt>0</asrwt>
<pdfrwt beam="1">  1       21 0.80896994E-02 0.18804737E+03</pdfrwt>
<pdfrwt beam="2">  1       21 0.49172943E+00 0.18804737E+03</pdfrwt>
<totfact> 0.25679727E+02</totfact>
</mgrwt>
</event>
<event>
12    1  0.2791583E-001  0.2109908E+03  0.7546771E-02  0.1141007E+00
         21   -1    0    0  502  503  0.00000000000E+00  0.00000000000E+00  0.66412025314E+02  0.66412025314E+02  0.00000000000E+00 0. -1.
         21   -1    0    0  503  504 -0.00000000000E+00 -0.00000000000E+00 -0.66830228623E+03  0.66830228623E+03  0.00000000000E+00 0. -1.
         -6    2    1    2    0  504 -0.11273784200E+03  0.40325195440E+02 -0.31958160296E+03  0.38294843969E+03  0.17372726933E+03 0.  0.
        -24    2    3    3    0    0 -0.10217764818E+03  0.46766384148E+02 -0.33543411238E+03  0.36229901693E+03  0.78212322867E+02 0.  0.
          6    2    1    2  502    0  0.11273784200E+03 -0.40325195440E+02 -0.28230865796E+03  0.35176587185E+03  0.17235169809E+03 0.  0.
         24    2    5    5    0    0  0.46500523390E+02 -0.53183864871E+02 -0.62912135253E+02  0.12218004491E+03  0.77325315739E+02 0.  0.
          4    1    6    6  501    0  0.12304666706E+02 -0.66006643765E+02 -0.32217126828E+02  0.74472982382E+02  0.00000000000E+00 0. -1.
         -3    1    6    6    0  501  0.34195856684E+02  0.12822778894E+02 -0.30695008425E+02  0.47707062529E+02  0.00000000000E+00 0.  1.
          5    1    5    5  502    0  0.66237318609E+02  0.12858669431E+02 -0.21939652271E+03  0.22958582694E+03  0.47000000000E+01 0. -1.
         11    1    4    4    0    0 -0.18054938413E+02  0.24792711067E+02 -0.23966206953E+02  0.38923494176E+02  0.00000000000E+00 0. -1.
        -12    1    4    4    0    0 -0.84122709765E+02  0.21973673081E+02 -0.31146790542E+03  0.32337552275E+03  0.00000000000E+00 0.  1.
         -5    1    3    3    0  504 -0.10560193822E+02 -0.64411887079E+01  0.15852509421E+02  0.20649422763E+02  0.47000000000E+01 0.  1.
<mgrwt>
<rscale>  2 0.21070741E+03</rscale>
<asrwt>0</asrwt>
<pdfrwt beam="1">  1       21 0.10217235E-01 0.21099077E+03</pdfrwt>
<pdfrwt beam="2">  1       21 0.10281573E+00 0.21099077E+03</pdfrwt>
<totfact> 0.59487534E+04</totfact>
</mgrwt>
</event>
<event>
12    1  0.2791583E-001  0.1883228E+03  0.7546771E-02  0.1160023E+00
         21   -1    0    0  502  503  0.00000000000E+00  0.00000000000E+00  0.14533482351E+03  0.14533482351E+03  0.00000000000E+00 0.  1.
         21   -1    0    0  503  504 -0.00000000000E+00 -0.00000000000E+00 -0.27128640807E+03  0.27128640807E+03  0.00000000000E+00 0.  1.
         -6    2    1    2    0  504 -0.66230277427E+02 -0.35326835730E+02 -0.12930972234E+03  0.22844359154E+03  0.17271663282E+03 0.  0.
        -24    2    3    3    0    0 -0.29803146548E+02  0.18668328485E+02 -0.44320547460E+01  0.87521856217E+02  0.80023110248E+02 0.  0.
          6    2    1    2  502    0  0.66230277427E+02  0.35326835730E+02  0.33581377823E+01  0.18817764004E+03  0.17252568549E+03 0.  0.
         24    2    5    5    0    0  0.90872712787E+02  0.46920559393E+02  0.44941921973E+02  0.13824803804E+03  0.81445410230E+02 0.  0.
          2    1    6    6  501    0 -0.22488649024E+01  0.36982093391E+02  0.14255582453E+02  0.39698290342E+02  0.00000000000E+00 0. -1.
         -1    1    6    6    0  501  0.93121577689E+02  0.99384660012E+01  0.30686339520E+02  0.98549747696E+02  0.00000000000E+00 0.  1.
          5    1    5    5  502    0 -0.24642435360E+02 -0.11593723663E+02 -0.41583784191E+02  0.49929602006E+02  0.47000000000E+01 0. -1.
         13    1    4    4    0    0  0.35680318638E+01  0.43801658138E+02 -0.10820384833E+02  0.45259218232E+02  0.00000000000E+00 0. -1.
        -14    1    4    4    0    0 -0.33371178412E+02 -0.25133329654E+02  0.63883300873E+01  0.42262637984E+02  0.00000000000E+00 0.  1.
         -5    1    3    3    0  504 -0.36427130879E+02 -0.53995164214E+02 -0.12487766760E+03  0.14092173533E+03  0.47000000000E+01 0.  1.
<mgrwt>
<rscale>  2 0.18827899E+03</rscale>
<asrwt>0</asrwt>
<pdfrwt beam="1">  1       21 0.22359204E-01 0.18832278E+03</pdfrwt>
<pdfrwt beam="2">  1       21 0.41736370E-01 0.18832278E+03</pdfrwt>
<totfact> 0.10363692E+05</totfact>
</mgrwt>
</event>
<event>
12    1  0.2791583E-001  0.1904197E+03  0.7546771E-02  0.1158524E+00
         21   -1    0    0  502  503  0.00000000000E+00  0.00000000000E+00  0.14010235520E+03  0.14010235520E+03  0.00000000000E+00 0.  1.
         21   -1    0    0  503  504 -0.00000000000E+00 -0.00000000000E+00 -0.31150499680E+03  0.31150499680E+03  0.00000000000E+00 0.  1.
         -6    2    1    2    0  504  0.58392161307E+02 -0.52417019136E+02 -0.18123666987E+03  0.26288096806E+03  0.17350067569E+03 0.  0.
        -24    2    3    3    0    0  0.30697428378E+02  0.29947616610E+02 -0.13931564479E+03  0.16628700449E+03  0.80020791857E+02 0.  0.
          6    2    1    2  502    0 -0.58392161307E+02  0.52417019136E+02  0.98340282645E+01  0.18872638394E+03  0.17135854658E+03 0.  0.
         24    2    5    5    0    0 -0.83459248304E+01 -0.26154278639E+02  0.34389945623E+02  0.92273505822E+02  0.81105060041E+02 0.  0.
          4    1    6    6  501    0  0.23453861331E+02 -0.39587922959E+02  0.34894917106E+02  0.57748960990E+02  0.00000000000E+00 0. -1.
         -3    1    6    6    0  501 -0.31799786162E+02  0.13433644320E+02 -0.50497148291E+00  0.34524544832E+02  0.00000000000E+00 0.  1.
          5    1    5    5  502    0 -0.50046236477E+02  0.78571297776E+02 -0.24555917358E+02  0.96452878116E+02  0.47000000000E+01 0. -1.
         11    1    4    4    0    0  0.14407920241E+01  0.60458565327E+01  0.10270123041E+02  0.12004319645E+02  0.00000000000E+00 0. -1.
        -12    1    4    4    0    0  0.29256636354E+02  0.23901760077E+02 -0.14958576783E+03  0.15428268485E+03  0.00000000000E+00 0.  1.
         -5    1    3    3    0  504  0.27694732929E+02 -0.82364635746E+02 -0.41921025074E+02  0.96593963563E+02  0.47000000000E+01 0.  1.
<mgrwt>
<rscale>  2 0.18993041E+03</rscale>
<asrwt>0</asrwt>
<pdfrwt beam="1">  1       21 0.21554209E-01 0.19041973E+03</pdfrwt>
<pdfrwt beam="2">  1       21 0.47923845E-01 0.19041973E+03</pdfrwt>
<totfact> 0.83565937E+04</totfact>
</mgrwt>
</event>
<event>
12    1  0.2791583E-001  0.1766297E+03  0.7546771E-02  0.1171108E+00
         21   -1    0    0  502  503  0.00000000000E+00  0.00000000000E+00  0.11720081685E+03  0.11720081685E+03  0.00000000000E+00 0. -1.
         21   -1    0    0  503  504 -0.00000000000E+00 -0.00000000000E+00 -0.30823017601E+03  0.30823017601E+03  0.00000000000E+00 0. -1.
         -6    2    1    2    0  504  0.21121561006E+02 -0.23370915547E+02 -0.17408713008E+03  0.24800074838E+03  0.17379793528E+03 0.  0.
        -24    2    3    3    0    0  0.68222376560E+02 -0.30484837996E+01 -0.16466007764E+03  0.19563236693E+03  0.80594639440E+02 0.  0.
          6    2    1    2  502    0 -0.21121561006E+02  0.23370915547E+02 -0.16942229076E+02  0.17743024447E+03  0.17378760742E+03 0.  0.
         24    2    5    5    0    0  0.28575009488E+01  0.63348415322E+02 -0.60298001970E+02  0.11359444774E+03  0.72433849001E+02 0.  0.
          2    1    6    6  501    0 -0.33072416400E+02  0.38886282442E+02 -0.43241159887E+02  0.66900863948E+02  0.00000000000E+00 0. -1.
         -1    1    6    6    0  501  0.35929917349E+02  0.24462132880E+02 -0.17056842083E+02  0.46693583794E+02  0.00000000000E+00 0.  1.
          5    1    5    5  502    0 -0.23979061955E+02 -0.39977499775E+02  0.43355772894E+02  0.63835796726E+02  0.47000000000E+01 0. -1.
         13    1    4    4    0    0  0.58676047926E+02 -0.17605824260E+02 -0.16717269371E+03  0.17804368332E+03  0.00000000000E+00 0. -1.
        -14    1    4    4    0    0  0.95463286344E+01  0.14557340460E+02  0.25126160705E+01  0.17588683612E+02  0.00000000000E+00 0.  1.
         -5    1    3    3    0  504 -0.47100815554E+02 -0.20322431747E+02 -0.94270524412E+01  0.52368381450E+02  0.47000000000E+01 0.  1.
<mgrwt>
<rscale>  2 0.17662714E+03</rscale>
<asrwt>0</asrwt>
<pdfrwt beam="1">  1       21 0.18030895E-01 0.17662968E+03</pdfrwt>
<pdfrwt beam="2">  1       21 0.47420027E-01 0.17662968E+03</pdfrwt>
<totfact> 0.11972810E+05</totfact>
</mgrwt>
</event>
<event>
12    1  0.2791583E-001  0.2190057E+03  0.7546771E-02  0.1135791E+00
         21   -1    0    0  502  503  0.00000000000E+00  0.00000000000E+00  0.11996199915E+03  0.11996199915E+03  0.00000000000E+00 0. -1.
         21   -1    0    0  503  504 -0.00000000000E+00 -0.00000000000E+00 -0.76802315241E+03  0.76802315241E+03  0.00000000000E+00 0. -1.
         -6    2    1    2    0  504  0.13346446749E+03 -0.23175167292E+02 -0.63370558570E+03  0.66850946031E+03  0.16423238633E+03 0.  0.
        -24    2    3    3    0    0  0.13327810898E+03 -0.65432647901E+02 -0.43156483738E+03  0.46194542296E+03  0.71420439564E+02 0.  0.
          6    2    1    2  502    0 -0.13346446749E+03  0.23175167292E+02 -0.14355567569E+02  0.21947569125E+03  0.17208615362E+03 0.  0.
         24    2    5    5    0    0 -0.56046567768E+02 -0.34810420630E+02 -0.51644880393E+02  0.11570458518E+03  0.79795828320E+02 0.  0.
          4    1    6    6  501    0 -0.14963144236E+02 -0.13811469876E+00 -0.59519798994E+02  0.61371990626E+02  0.00000000000E+00 0. -1.
         -3    1    6    6    0  501 -0.41083423532E+02 -0.34672305931E+02  0.78749186009E+01  0.54332594551E+02  0.00000000000E+00 0.  1.
          5    1    5    5  502    0 -0.77417899725E+02  0.57985587922E+02  0.37289312824E+02  0.10377110607E+03  0.47000000000E+01 0. -1.
         11    1    4    4    0    0  0.95544357059E+02 -0.23591838756E+02 -0.34416090499E+03  0.35795534295E+03  0.00000000000E+00 0. -1.
        -12    1    4    4    0    0  0.37733751916E+02 -0.41840809145E+02 -0.87403932391E+02  0.10399008001E+03  0.00000000000E+00 0.  1.
         -5    1    3    3    0  504  0.18635851812E+00  0.42257480609E+02 -0.20214074831E+03  0.20656403735E+03  0.47000000000E+01 0.  1.
<mgrwt>
<rscale>  2 0.21746048E+03</rscale>
<asrwt>0</asrwt>
<pdfrwt beam="1">  1       21 0.18455692E-01 0.21900570E+03</pdfrwt>
<pdfrwt beam="2">  1       21 0.11815741E+00 0.21900570E+03</pdfrwt>
<totfact> 0.14456892E+04</totfact>
</mgrwt>
</event>
<event>
12    1  0.2791583E-001  0.1924638E+03  0.7546771E-02  0.1156616E+00
         21   -1    0    0  502  503  0.00000000000E+00  0.00000000000E+00  0.56769047829E+02  0.56769047829E+02  0.00000000000E+00 0.  1.
         21   -1    0    0  503  504 -0.00000000000E+00 -0.00000000000E+00 -0.64850713036E+03  0.64850713036E+03  0.00000000000E+00 0. -1.
         -6    2    1    2    0  504 -0.79449371599E+02  0.19461630218E+02 -0.27798531424E+03  0.33719585940E+03  0.17243623450E+03 0.  0.
        -24    2    3    3    0    0 -0.30161837397E+01  0.31100087590E+02 -0.23159382394E+03  0.24690883781E+03  0.79699197543E+02 0.  0.
          6    2    1    2  502    0  0.79449371599E+02 -0.19461630218E+02 -0.31375276829E+03  0.36808031878E+03  0.17421642794E+03 0.  0.
         24    2    5    5    0    0  0.72334332915E+02  0.32573637363E+02 -0.28826210992E+03  0.30951278074E+03  0.80061350599E+02 0.  0.
          2    1    6    6  501    0  0.42478004388E+02  0.21180682286E+02 -0.49346723614E+02  0.68469710751E+02  0.00000000000E+00 0. -1.
         -1    1    6    6    0  501  0.29856328527E+02  0.11392955077E+02 -0.23891538630E+03  0.24104306999E+03  0.00000000000E+00 0.  1.
          5    1    5    5  502    0  0.71150386840E+01 -0.52035267581E+02 -0.25490658376E+02  0.58567538041E+02  0.47000000000E+01 0. -1.
         13    1    4    4    0    0  0.16947889152E+02  0.31428846378E+02 -0.37463476499E+02  0.51754375687E+02  0.00000000000E+00 0. -1.
        -14    1    4    4    0    0 -0.19964072892E+02 -0.32875878819E+00 -0.19413034744E+03  0.19515446212E+03  0.00000000000E+00 0.  1.
         -5    1    3    3    0  504 -0.76433187860E+02 -0.11638457372E+02 -0.46391490295E+02  0.90287021593E+02  0.47000000000E+01 0.  1.
<mgrwt>
<rscale>  2 0.19206007E+03</rscale>
<asrwt>0</asrwt>
<pdfrwt beam="1">  1       21 0.87337005E-02 0.19246382E+03</pdfrwt>
<pdfrwt beam="2">  1       21 0.99770318E-01 0.19246382E+03</pdfrwt>
<totfact> 0.85000830E+04</totfact>
</mgrwt>
</event>
<event>
12    1  0.2791583E-001  0.1941161E+03  0.7546771E-02  0.1155209E+00
         21   -1    0    0  502  503  0.00000000000E+00  0.00000000000E+00  0.15341033917E+03  0.15341033917E+03  0.00000000000E+00 0. -1.
         21   -1    0    0  503  504 -0.00000000000E+00 -0.00000000000E+00 -0.24391741843E+03  0.24391741843E+03  0.00000000000E+00 0. -1.
         -6    2    1    2    0  504 -0.72501426032E+02 -0.46738053334E+02 -0.55615147568E+02  0.20192602331E+03  0.17389701505E+03 0.  0.
        -24    2    3    3    0    0 -0.88517370151E+02 -0.23088263146E+01  0.13186096826E+02  0.11834272408E+03  0.77398137548E+02 0.  0.
          6    2    1    2  502    0  0.72501426032E+02  0.46738053334E+02 -0.34891931700E+02  0.19540173429E+03  0.17182400432E+03 0.  0.
         24    2    5    5    0    0  0.64053876904E+02  0.73347265746E+02  0.28588514732E+02  0.12589440841E+03  0.74494149813E+02 0.  0.
          2    1    6    6  501    0  0.78212489386E+02  0.48048295141E+02  0.30792069343E+02  0.96819335344E+02  0.00000000000E+00 0. -1.
         -1    1    6    6    0  501 -0.14158612482E+02  0.25298970606E+02 -0.22035546109E+01  0.29075073070E+02  0.00000000000E+00 0.  1.
          5    1    5    5  502    0  0.84475491275E+01 -0.26609212412E+02 -0.63480446433E+02  0.69507325878E+02  0.47000000000E+01 0. -1.
         13    1    4    4    0    0 -0.70759491173E+02  0.32990467058E+02  0.77434253114E+01  0.78455319407E+02  0.00000000000E+00 0. -1.
        -14    1    4    4    0    0 -0.17757878978E+02 -0.35299293372E+02  0.54426715147E+01  0.39887404674E+02  0.00000000000E+00 0.  1.
         -5    1    3    3    0  504  0.16015944120E+02 -0.44429227019E+02 -0.68801244394E+02  0.83583299227E+02  0.47000000000E+01 0.  1.
<mgrwt>
<rscale>  2 0.19365075E+03</rscale>
<asrwt>0</asrwt>
<pdfrwt beam="1">  1       21 0.23601591E-01 0.19411614E+03</pdfrwt>
<pdfrwt beam="2">  1       21 0.37525756E-01 0.19411614E+03</pdfrwt>
<totfact> 0.11569207E+05</totfact>
</mgrwt>
</event>
<event>
12    1  0.2791583E-001  0.2120838E+03  0.7546771E-02  0.1140096E+00
         21   -1    0    0  502  503  0.00000000000E+00  0.00000000000E+00  0.17892367929E+04  0.17892367929E+04  0.00000000000E+00 0. -1.
         21   -1    0    0  503  504 -0.00000000000E+00 -0.00000000000E+00 -0.28124644301E+02  0.28124644301E+02  0.00000000000E+00 0. -1.
         -6    2    1    2    0  504 -0.27884240693E+02 -0.12002818408E+03  0.57783307085E+03  0.61522628599E+03  0.17154599777E+03 0.  0.
        -24    2    3    3    0    0  0.36496628968E+02 -0.88903442114E+02  0.25118362849E+03  0.28080799382E+03  0.80771828181E+02 0.  0.
          6    2    1    2  502    0  0.27884240693E+02  0.12002818408E+03  0.11832790778E+04  0.12021351513E+04  0.17261300673E+03 0.  0.
         24    2    5    5    0    0 -0.14586353119E+02  0.75593025681E+02  0.10417397604E+04  0.10477534716E+04  0.81477246299E+02 0.  0.
          4    1    6    6  501    0 -0.24262397011E+02  0.57956949020E+02  0.34193358001E+03  0.34765823015E+03  0.00000000000E+00 0. -1.
         -3    1    6    6    0  501  0.96760438918E+01  0.17636076660E+02  0.69980618035E+03  0.70009524144E+03  0.00000000000E+00 0.  1.
          5    1    5    5  502    0  0.42470593813E+02  0.44435158397E+02  0.14153931743E+03  0.15438167968E+03  0.47000000000E+01 0. -1.
         13    1    4    4    0    0  0.43580726408E+01 -0.56212203789E+02  0.21538807772E+03  0.22264507332E+03  0.00000000000E+00 0. -1.
        -14    1    4    4    0    0  0.32138556327E+02 -0.32691238324E+02  0.35795550772E+02  0.58162920499E+02  0.00000000000E+00 0.  1.
         -5    1    3    3    0  504 -0.64380869661E+02 -0.31124741964E+02  0.32664944236E+03  0.33441829216E+03  0.47000000000E+01 0.  1.
<mgrwt>
<rscale>  2 0.21186661E+03</rscale>
<asrwt>0</asrwt>
<pdfrwt beam="1">  1       21 0.27526711E+00 0.21208382E+03</pdfrwt>
<pdfrwt beam="2">  1       21 0.43268698E-02 0.21208382E+03</pdfrwt>
<totfact> 0.15983042E+04</totfact>
</mgrwt>
</event>
<event>
12    1  0.2791583E-001  0.2479945E+03  0.7546771E-02  0.1114597E+00
         21   -1    0    0  502  503  0.00000000000E+00  0.00000000000E+00  0.53187101149E+03  0.53187101149E+03  0.00000000000E+00 0.  1.
         21   -1    0    0  503  504 -0.00000000000E+00 -0.00000000000E+00 -0.15360754469E+03  0.15360754469E+03  0.00000000000E+00 0.  1.
         -6    2    1    2    0  504 -0.16525896768E+03  0.63980899305E+02  0.18630120591E+02  0.24869326986E+03  0.17348538614E+03 0.  0.
        -24    2    3    3    0    0 -0.11996560553E+03 -0.17194768633E+02  0.33058461976E+02  0.15450598433E+03  0.89954603590E+02 0.  0.
          6    2    1    2  502    0  0.16525896768E+03 -0.63980899305E+02  0.35963334620E+03  0.43678528632E+03  0.17332386095E+03 0.  0.
         24    2    5    5    0    0  0.13323017961E+03 -0.10883839169E+03  0.25171070109E+03  0.31551111258E+03  0.81196729332E+02 0.  0.
          4    1    6    6  501    0  0.18574392499E+02 -0.50954023891E+02  0.11926014166E+03  0.13101260243E+03  0.00000000000E+00 0. -1.
         -3    1    6    6    0  501  0.11465578711E+03 -0.57884367802E+02  0.13245055943E+03  0.18449851015E+03  0.00000000000E+00 0.  1.
          5    1    5    5  502    0  0.32028788069E+02  0.44857492389E+02  0.10792264511E+03  0.12127417374E+03  0.47000000000E+01 0. -1.
         11    1    4    4    0    0  0.30724680986E+01 -0.26552204521E+01 -0.19504546823E+02  0.19922791035E+02  0.00000000000E+00 0. -1.
        -12    1    4    4    0    0 -0.12303807363E+03 -0.14539548181E+02  0.52563008798E+02  0.13458319329E+03  0.00000000000E+00 0.  1.
         -5    1    3    3    0  504 -0.45293362153E+02  0.81175667938E+02 -0.14428341384E+02  0.94187285529E+02  0.47000000000E+01 0.  1.
<mgrwt>
<rscale>  2 0.24796623E+03</rscale>
<asrwt>0</asrwt>
<pdfrwt beam="1">  1       21 0.81826309E-01 0.24799448E+03</pdfrwt>
<pdfrwt beam="2">  1       21 0.23631930E-01 0.24799448E+03</pdfrwt>
<totfact> 0.21373181E+04</totfact>
</mgrwt>
</event>
<event>
12    1  0.2791583E-001  0.1742938E+03  0.7546771E-02  0.1173621E+00
         21   -1    0    0  502  503  0.00000000000E+00  0.00000000000E+00  0.14829741733E+03  0.14829741733E+03  0.00000000000E+00 0.  1.
         21   -1    0    0  503  504 -0.00000000000E+00 -0.00000000000E+00 -0.20642614087E+03  0.20642614087E+03  0.00000000000E+00 0.  1.
         -6    2    1    2    0  504 -0.28270741062E+02  0.51307993833E+00 -0.48162232013E+02  0.18014499624E+03  0.17126914791E+03 0.  0.
        -24    2    3    3    0    0 -0.67781277064E+02 -0.20059705621E+02 -0.73450267970E+02  0.12870671552E+03  0.78573427095E+02 0.  0.
          6    2    1    2  502    0  0.28270741062E+02 -0.51307993833E+00 -0.99664915225E+01  0.17457856196E+03  0.17198501473E+03 0.  0.
         24    2    5    5    0    0 -0.44533817288E+02  0.28323277829E+02 -0.12615310900E+02  0.96085597372E+02  0.79295819587E+02 0.  0.
          4    1    6    6  501    0 -0.58814789430E+02 -0.41060018647E+01 -0.16044894594E+01  0.58979768509E+02  0.00000000000E+00 0. -1.
         -3    1    6    6    0  501  0.14280972142E+02  0.32429279694E+02 -0.11010821441E+02  0.37105828863E+02  0.00000000000E+00 0.  1.
          5    1    5    5  502    0  0.72804558350E+02 -0.28836357768E+02  0.26488193776E+01  0.78492964589E+02  0.47000000000E+01 0. -1.
         11    1    4    4    0    0 -0.66758074945E+01  0.27134433012E+02 -0.13954810388E+02  0.31234285545E+02  0.00000000000E+00 0. -1.
        -12    1    4    4    0    0 -0.61105469569E+02 -0.47194138633E+02 -0.59495457583E+02  0.97472429976E+02  0.00000000000E+00 0.  1.
         -5    1    3    3    0  504  0.39510536002E+02  0.20572785559E+02  0.25288035958E+02  0.51438280720E+02  0.47000000000E+01 0.  1.
<mgrwt>
<rscale>  2 0.17411699E+03</rscale>
<asrwt>0</asrwt>
<pdfrwt beam="1">  1       21 0.22814987E-01 0.17429384E+03</pdfrwt>
<pdfrwt beam="2">  1       21 0.31757868E-01 0.17429384E+03</pdfrwt>
<totfact> 0.17277309E+05</totfact>
</mgrwt>
</event>
<event>
12    1  0.2791583E-001  0.1845428E+03  0.7546771E-02  0.1164039E+00
         21   -1    0    0  502  503  0.00000000000E+00  0.00000000000E+00  0.15697775148E+03  0.15697775148E+03  0.00000000000E+00 0.  1.
         21   -1    0    0  503  504 -0.00000000000E+00 -0.00000000000E+00 -0.33300920460E+03  0.33300920460E+03  0.00000000000E+00 0.  1.
         -6    2    1    2    0  504 -0.21796662784E+02 -0.54958624476E+02 -0.23400673573E+03  0.29655172359E+03  0.17230272049E+03 0.  0.
        -24    2    3    3    0    0  0.42372039974E+02  0.53689021700E+01 -0.10440004153E+03  0.13978113303E+03  0.82554113147E+02 0.  0.
          6    2    1    2  502    0  0.21796662784E+02  0.54958624476E+02  0.57975282605E+02  0.19343523250E+03  0.17481564823E+03 0.  0.
         24    2    5    5    0    0 -0.64405127542E+01  0.20934815741E+00  0.92424722268E+02  0.12269857133E+03  0.80443061161E+02 0.  0.
          2    1    6    6  501    0  0.23269813312E+02 -0.25566647006E+02  0.19114833850E+02  0.39503348261E+02  0.00000000000E+00 0. -1.
         -1    1    6    6    0  501 -0.29710326066E+02  0.25775995164E+02  0.73309888418E+02  0.83195223069E+02  0.00000000000E+00 0.  1.
          5    1    5    5  502    0  0.28237175538E+02  0.54749276319E+02 -0.34449439663E+02  0.70736661166E+02  0.47000000000E+01 0. -1.
         13    1    4    4    0    0  0.64392815761E+02 -0.10351900568E+02 -0.65827174664E+02  0.92665060790E+02  0.00000000000E+00 0. -1.
        -14    1    4    4    0    0 -0.22020775787E+02  0.15720802738E+02 -0.38572866869E+02  0.47116072242E+02  0.00000000000E+00 0.  1.
         -5    1    3    3    0  504 -0.64168702758E+02 -0.60327526646E+02 -0.12960669419E+03  0.15677059056E+03  0.47000000000E+01 0.  1.
<mgrwt>
<rscale>  2 0.18394526E+03</rscale>
<asrwt>0</asrwt>
<pdfrwt beam="1">  1       21 0.24150423E-01 0.18454283E+03</pdfrwt>
<pdfrwt beam="2">  1       21 0.51232185E-01 0.18454283E+03</pdfrwt>
<totfact> 0.58802750E+04</totfact>
</mgrwt>
</event>
<event>
12    1  0.2791583E-001  0.1944587E+03  0.7546771E-02  0.1154717E+00
         21   -1    0    0  502  503  0.00000000000E+00  0.00000000000E+00  0.29866323133E+03  0.29866323133E+03  0.00000000000E+00 0.  1.
         21   -1    0    0  503  504 -0.00000000000E+00 -0.00000000000E+00 -0.13158153535E+03  0.13158153535E+03  0.00000000000E+00 0.  1.
         -6    2    1    2    0  504  0.42838893108E+02 -0.76722562023E+02  0.38903547705E+02  0.19734173864E+03  0.17236227401E+03 0.  0.
        -24    2    3    3    0    0 -0.39888613376E+02 -0.51562783287E+02  0.39160174373E+02  0.11074491045E+03  0.80505241054E+02 0.  0.
          6    2    1    2  502    0 -0.42838893108E+02  0.76722562023E+02  0.12817814827E+03  0.23290302804E+03  0.17347236232E+03 0.  0.
         24    2    5    5    0    0 -0.28304052519E+02  0.10081049876E+03  0.35213240976E+02  0.13566078271E+03  0.78740076054E+02 0.  0.
          2    1    6    6  501    0 -0.10629525503E+02  0.57141849904E+02 -0.21466109341E+02  0.61959435707E+02  0.00000000000E+00 0. -1.
         -1    1    6    6    0  501 -0.17674527016E+02  0.43668648855E+02  0.56679350317E+02  0.73701347006E+02  0.00000000000E+00 0.  1.
          5    1    5    5  502    0 -0.14534840589E+02 -0.24087936736E+02  0.92964907295E+02  0.97242245324E+02  0.47000000000E+01 0. -1.
         11    1    4    4    0    0 -0.29632781737E+02 -0.11463854851E+02 -0.20734908325E+02  0.37940191680E+02  0.00000000000E+00 0. -1.
        -12    1    4    4    0    0 -0.10255831640E+02 -0.40098928435E+02  0.59895082698E+02  0.72804718773E+02  0.00000000000E+00 0.  1.
         -5    1    3    3    0  504  0.82727506484E+02 -0.25159778736E+02 -0.25662666821E+00  0.86596828189E+02  0.47000000000E+01 0.  1.
<mgrwt>
<rscale>  2 0.19421081E+03</rscale>
<asrwt>0</asrwt>
<pdfrwt beam="1">  1       21 0.45948189E-01 0.19445869E+03</pdfrwt>
<pdfrwt beam="2">  1       21 0.20243313E-01 0.19445869E+03</pdfrwt>
<totfact> 0.10238092E+05</totfact>
</mgrwt>
</event>
<event>
12    1  0.2791583E-001  0.1845560E+03  0.7546771E-02  0.1164166E+00
         21   -1    0    0  502  503  0.00000000000E+00  0.00000000000E+00  0.16004662705E+03  0.16004662705E+03  0.00000000000E+00 0.  1.
         21   -1    0    0  503  504 -0.00000000000E+00 -0.00000000000E+00 -0.38286037249E+03  0.38286037249E+03  0.00000000000E+00 0.  1.
         -6    2    1    2    0  504  0.56036202814E+02 -0.34795090194E+02 -0.29361915844E+03  0.34523474222E+03  0.16918647316E+03 0.  0.
        -24    2    3    3    0    0  0.77151028652E+02 -0.48203524109E+02 -0.29588202396E+03  0.31968415454E+03  0.79849393247E+02 0.  0.
          6    2    1    2  502    0 -0.56036202814E+02  0.34795090194E+02  0.70805413008E+02  0.19767225733E+03  0.17236635541E+03 0.  0.
         24    2    5    5    0    0  0.78650328626E+01 -0.36930443941E+02  0.22989360084E+02  0.90264692021E+02  0.78698713565E+02 0.  0.
          4    1    6    6  501    0 -0.17531399882E+02  0.12835246909E+02 -0.11522326077E+02  0.24593851737E+02  0.00000000000E+00 0. -1.
         -3    1    6    6    0  501  0.25396432745E+02 -0.49765690850E+02  0.34511686161E+02  0.65670840284E+02  0.00000000000E+00 0.  1.
          5    1    5    5  502    0 -0.63901235676E+02  0.71725534135E+02  0.47816052924E+02  0.10740756531E+03  0.47000000000E+01 0. -1.
         13    1    4    4    0    0  0.11723423541E+02 -0.21852676967E+02 -0.12722616658E+02  0.27871905654E+02  0.00000000000E+00 0. -1.
        -14    1    4    4    0    0  0.65427605111E+02 -0.26350847142E+02 -0.28315940731E+03  0.29181224889E+03  0.00000000000E+00 0.  1.
         -5    1    3    3    0  504 -0.21114825838E+02  0.13408433916E+02  0.22628655188E+01  0.25550587676E+02  0.47000000000E+01 0.  1.
<mgrwt>
<rscale>  2 0.18380991E+03</rscale>
<asrwt>0</asrwt>
<pdfrwt beam="1">  1       21 0.24622558E-01 0.18455599E+03</pdfrwt>
<pdfrwt beam="2">  1       21 0.58901595E-01 0.18455599E+03</pdfrwt>
<totfact> 0.42204888E+04</totfact>
</mgrwt>
</event>
<event>
12    1  0.2791583E-001  0.2768269E+03  0.7546771E-02  0.1097998E+00
         21   -1    0    0  502  503  0.00000000000E+00  0.00000000000E+00  0.40669008908E+03  0.40669008908E+03  0.00000000000E+00 0. -1.
         21   -1    0    0  503  504 -0.00000000000E+00 -0.00000000000E+00 -0.18569729894E+03  0.18569729894E+03  0.00000000000E+00 0.  1.
         -6    2    1    2    0  504 -0.56591710239E+02  0.20441676810E+03  0.10915673033E+03  0.29382344977E+03  0.17154646924E+03 0.  0.
        -24    2    3    3    0    0 -0.31741473951E+02  0.51206868037E+02 -0.53687530003E+01  0.10087531152E+03  0.80730046841E+02 0.  0.
          6    2    1    2  502    0  0.56591710239E+02 -0.20441676810E+03  0.11183605981E+03  0.29856393826E+03  0.17788840379E+03 0.  0.
         24    2    5    5    0    0  0.26038834273E+02 -0.22430507916E+03  0.88624176621E+02  0.25509090446E+03  0.78907131661E+02 0.  0.
          4    1    6    6  501    0  0.44791029957E+02 -0.95013640852E+02  0.17979815595E+02  0.10656970527E+03  0.00000000000E+00 0. -1.
         -3    1    6    6    0  501 -0.18752195684E+02 -0.12929143831E+03  0.70644361026E+02  0.14852119919E+03  0.00000000000E+00 0.  1.
          5    1    5    5  502    0  0.30552875966E+02  0.19888311058E+02  0.23211883186E+02  0.43473033798E+02  0.47000000000E+01 0. -1.
         13    1    4    4    0    0 -0.39263912002E+02 -0.83294063137E+00  0.18162643651E+02  0.43269275475E+02  0.00000000000E+00 0. -1.
        -14    1    4    4    0    0  0.75224380510E+01  0.52039808668E+02 -0.23531396652E+02  0.57606036045E+02  0.00000000000E+00 0.  1.
         -5    1    3    3    0  504 -0.24850236289E+02  0.15320990007E+03  0.11452548333E+03  0.19294813825E+03  0.47000000000E+01 0.  1.
<mgrwt>
<rscale>  2 0.27581332E+03</rscale>
<asrwt>0</asrwt>
<pdfrwt beam="1">  1       21 0.62567705E-01 0.27682688E+03</pdfrwt>
<pdfrwt beam="2">  1       21 0.28568815E-01 0.27682688E+03</pdfrwt>
<totfact> 0.26625608E+04</totfact>
</mgrwt>
</event>
<event>
12    1  0.2791583E-001  0.2253963E+03  0.7546771E-02  0.1130079E+00
         21   -1    0    0  502  503  0.00000000000E+00  0.00000000000E+00  0.16758602329E+03  0.16758602329E+03  0.00000000000E+00 0. -1.
         21   -1    0    0  503  504 -0.00000000000E+00 -0.00000000000E+00 -0.32541611874E+03  0.32541611874E+03  0.00000000000E+00 0. -1.
         -6    2    1    2    0  504 -0.31235343968E+02 -0.14028423774E+03 -0.14491133834E+03  0.26723594255E+03  0.17251214143E+03 0.  0.
        -24    2    3    3    0    0 -0.86482601826E+01 -0.16701600279E+03 -0.10184138122E+03  0.21154146505E+03  0.80056148514E+02 0.  0.
          6    2    1    2  502    0  0.31235343968E+02  0.14028423774E+03 -0.12918757109E+02  0.22576619947E+03  0.17363227946E+03 0.  0.
         24    2    5    5    0    0  0.12561505909E+02  0.49661852287E+02  0.55561899375E+02  0.11055847714E+03  0.80696723615E+02 0.  0.
          2    1    6    6  501    0 -0.19480344912E+02  0.29565458977E+02  0.62758717144E+02  0.72057315937E+02  0.00000000000E+00 0. -1.
         -1    1    6    6    0  501  0.32041850820E+02  0.20096393311E+02 -0.71968177692E+01  0.38501161204E+02  0.00000000000E+00 0.  1.
          5    1    5    5  502    0  0.18673838060E+02  0.90622385448E+02 -0.68480656484E+02  0.11520772233E+03  0.47000000000E+01 0. -1.
         13    1    4    4    0    0  0.27529384510E+02 -0.12338025918E+03 -0.85276447537E+02  0.15248812371E+03  0.00000000000E+00 0. -1.
        -14    1    4    4    0    0 -0.36177644693E+02 -0.43635743611E+02 -0.16564933678E+02  0.59053341343E+02  0.00000000000E+00 0.  1.
         -5    1    3    3    0  504 -0.22587083786E+02  0.26731765059E+02 -0.43069957127E+02  0.55694477500E+02  0.47000000000E+01 0.  1.
<mgrwt>
<rscale>  2 0.22518053E+03</rscale>
<asrwt>0</asrwt>
<pdfrwt beam="1">  1       21 0.25782465E-01 0.22539628E+03</pdfrwt>
<pdfrwt beam="2">  1       21 0.50064018E-01 0.22539628E+03</pdfrwt>
<totfact> 0.53453720E+04</totfact>
</mgrwt>
</event>
<event>
12    1  0.2791583E-001  0.1902535E+03  0.7546771E-02  0.1159485E+00
         21   -1    0    0  502  503  0.00000000000E+00  0.00000000000E+00  0.11898200293E+03  0.11898200293E+03  0.00000000000E+00 0. -1.
         21   -1    0    0  503  504 -0.00000000000E+00 -0.00000000000E+00 -0.41547498954E+03  0.41547498954E+03  0.00000000000E+00 0. -1.
         -6    2    1    2    0  504  0.56125878494E+02 -0.54370517236E+02 -0.29336382482E+03  0.34965517943E+03  0.17346510718E+03 0.  0.
        -24    2    3    3    0    0  0.36476413667E+02 -0.10066380326E+02 -0.28746338984E+03  0.30060558057E+03  0.79351457468E+02 0.  0.
          6    2    1    2  502    0 -0.56125878494E+02  0.54370517236E+02 -0.31291618008E+01  0.18480181304E+03  0.16743849936E+03 0.  0.
         24    2    5    5    0    0 -0.63933879921E+02 -0.14539556217E+01 -0.47588901160E+02  0.11285672926E+03  0.79889190992E+02 0.  0.
          2    1    6    6  501    0 -0.67572336087E+02 -0.10569735564E+02 -0.43657682778E+01  0.68533202514E+02  0.00000000000E+00 0. -1.
         -1    1    6    6    0  501  0.36384561654E+01  0.91157799422E+01 -0.43223132883E+02  0.44323526748E+02  0.00000000000E+00 0.  1.
          5    1    5    5  502    0  0.78080014276E+01  0.55824472858E+02  0.44459739360E+02  0.71945083780E+02  0.47000000000E+01 0. -1.
         13    1    4    4    0    0 -0.13604573612E+02 -0.24717297274E+02 -0.16641188659E+03  0.16878668551E+03  0.00000000000E+00 0. -1.
        -14    1    4    4    0    0  0.50080987279E+02  0.14650916949E+02 -0.12105150326E+03  0.13181889506E+03  0.00000000000E+00 0.  1.
         -5    1    3    3    0  504  0.19649464826E+02 -0.44304136910E+02 -0.59004349738E+01  0.49049598859E+02  0.47000000000E+01 0.  1.
<mgrwt>
<rscale>  2 0.18886895E+03</rscale>
<asrwt>0</asrwt>
<pdfrwt beam="1">  1       21 0.18304924E-01 0.19025354E+03</pdfrwt>
<pdfrwt beam="2">  1       21 0.63919229E-01 0.19025354E+03</pdfrwt>
<totfact> 0.61587146E+04</totfact>
</mgrwt>
</event>
<event>
12    1  0.2791583E-001  0.2288760E+03  0.7546771E-02  0.1127634E+00
         21   -1    0    0  502  503  0.00000000000E+00  0.00000000000E+00  0.71915672396E+02  0.71915672396E+02  0.00000000000E+00 0. -1.
         21   -1    0    0  503  504 -0.00000000000E+00 -0.00000000000E+00 -0.11424687943E+04  0.11424687943E+04  0.00000000000E+00 0.  1.
         -6    2    1    2    0  504 -0.37043642983E+02 -0.14473924554E+03 -0.90155615417E+03  0.92987756397E+03  0.17189271118E+03 0.  0.
        -24    2    3    3    0    0 -0.71012035476E+02 -0.36436551415E+02 -0.28856425412E+03  0.30644794904E+03  0.65350480109E+02 0.  0.
          6    2    1    2  502    0  0.37043642983E+02  0.14473924554E+03 -0.16899696777E+03  0.28450690277E+03  0.17338547206E+03 0.  0.
         24    2    5    5    0    0  0.60741843019E+02  0.49414404431E+02 -0.14554106745E+03  0.18340942863E+03  0.79532768952E+02 0.  0.
          4    1    6    6  501    0 -0.16951865454E+02 -0.91822467652E+00 -0.37296406851E+02  0.40978419235E+02  0.00000000000E+00 0. -1.
         -3    1    6    6    0  501  0.77693708474E+02  0.50332629107E+02 -0.10824466060E+03  0.14243100939E+03  0.00000000000E+00 0.  1.
          5    1    5    5  502    0 -0.23698200036E+02  0.95324841108E+02 -0.23455900318E+02  0.10109747414E+03  0.47000000000E+01 0. -1.
         13    1    4    4    0    0 -0.40405509285E+02 -0.53603912246E+02 -0.16910260589E+03  0.18193865974E+03  0.00000000000E+00 0. -1.
        -14    1    4    4    0    0 -0.30606526190E+02  0.17167360830E+02 -0.11946164823E+03  0.12450928929E+03  0.00000000000E+00 0.  1.
         -5    1    3    3    0  504  0.33968392492E+02 -0.10830269412E+03 -0.61299190005E+03  0.62342961493E+03  0.47000000000E+01 0.  1.
<mgrwt>
<rscale>  2 0.22859324E+03</rscale>
<asrwt>0</asrwt>
<pdfrwt beam="1">  1       21 0.11063950E-01 0.22887595E+03</pdfrwt>
<pdfrwt beam="2">  1       21 0.17576443E+00 0.22887595E+03</pdfrwt>
<totfact> 0.12852686E+04</totfact>
</mgrwt>
</event>
<event>
12    1  0.2791583E-001  0.1825324E+03  0.7546771E-02  0.1165520E+00
         21   -1    0    0  502  503  0.00000000000E+00  0.00000000000E+00  0.11954950688E+03  0.11954950688E+03  0.00000000000E+00 0. -1.
         21   -1    0    0  503  504 -0.00000000000E+00 -0.00000000000E+00 -0.57302242029E+03  0.57302242029E+03  0.00000000000E+00 0.  1.
         -6    2    1    2    0  504 -0.40933082889E+02 -0.42505611543E+02 -0.47512228298E+03  0.50876017151E+03  0.17208568807E+03 0.  0.
        -24    2    3    3    0    0 -0.79919621720E+02 -0.68886871561E+02 -0.36698287053E+03  0.39072566971E+03  0.82810474556E+02 0.  0.
          6    2    1    2  502    0  0.40933082889E+02  0.42505611543E+02  0.21649369578E+02  0.18381175566E+03  0.17273048957E+03 0.  0.
         24    2    5    5    0    0  0.79654379158E+02  0.19703417408E+02 -0.25961122364E+02  0.11817542590E+03  0.80983989990E+02 0.  0.
          4    1    6    6  501    0  0.90236903336E+01 -0.12443054181E+02 -0.36742467084E+02  0.39827948378E+02  0.00000000000E+00 0. -1.
         -3    1    6    6    0  501  0.70630688824E+02  0.32146471589E+02  0.10781344720E+02  0.78347477518E+02  0.00000000000E+00 0.  1.
          5    1    5    5  502    0 -0.38721296269E+02  0.22802194135E+02  0.47610491942E+02  0.65636329765E+02  0.47000000000E+01 0. -1.
         13    1    4    4    0    0 -0.49717658769E+02  0.81610351849E+01 -0.11655732953E+03  0.12698054637E+03  0.00000000000E+00 0. -1.
        -14    1    4    4    0    0 -0.30201962951E+02 -0.77047906746E+02 -0.25042554100E+03  0.26374512334E+03  0.00000000000E+00 0.  1.
         -5    1    3    3    0  504  0.38986538831E+02  0.26381260018E+02 -0.10813941245E+03  0.11803450180E+03  0.47000000000E+01 0.  1.
<mgrwt>
<rscale>  2 0.18237966E+03</rscale>
<asrwt>0</asrwt>
<pdfrwt beam="1">  1       21 0.18392231E-01 0.18253237E+03</pdfrwt>
<pdfrwt beam="2">  1       21 0.88157298E-01 0.18253237E+03</pdfrwt>
<totfact> 0.29896671E+04</totfact>
</mgrwt>
</event>
<event>
12    1  0.2791583E-001  0.2859661E+03  0.7546771E-02  0.1092761E+00
         21   -1    0    0  502  503  0.00000000000E+00  0.00000000000E+00  0.14371398255E+04  0.14371398255E+04  0.00000000000E+00 0.  1.
         21   -1    0    0  503  504 -0.00000000000E+00 -0.00000000000E+00 -0.74308035625E+02  0.74308035625E+02  0.00000000000E+00 0.  1.
         -6    2    1    2    0  504  0.67888756216E+02 -0.21492597942E+03  0.30925128025E+03  0.41974803126E+03  0.17248187026E+03 0.  0.
        -24    2    3    3    0    0  0.43846620294E+02 -0.22966247303E+03  0.24213543445E+03  0.34679725813E+03  0.83494862112E+02 0.  0.
          6    2    1    2  502    0 -0.67888756216E+02  0.21492597942E+03  0.10535805096E+04  0.10916998298E+04  0.17599593290E+03 0.  0.
         24    2    5    5    0    0 -0.10919583846E+03  0.19418402861E+03  0.81491946958E+03  0.84855854253E+03  0.79540493449E+02 0.  0.
          2    1    6    6  501    0 -0.56990685040E+02  0.75543123883E+02  0.21674862871E+03  0.23650511579E+03  0.00000000000E+00 0. -1.
         -1    1    6    6    0  501 -0.52205153422E+02  0.11864090473E+03  0.59817084088E+03  0.61205342675E+03  0.00000000000E+00 0.  1.
          5    1    5    5  502    0  0.41307082246E+02  0.20741950810E+02  0.23866104003E+03  0.24314128731E+03  0.47000000000E+01 0. -1.
         11    1    4    4    0    0 -0.11254285756E+02 -0.45652052398E+02  0.90831706314E+02  0.10227984996E+03  0.00000000000E+00 0. -1.
        -12    1    4    4    0    0  0.55100906050E+02 -0.18401042064E+03  0.15130372813E+03  0.24451740817E+03  0.00000000000E+00 0.  1.
         -5    1    3    3    0  504  0.24042135921E+02  0.14736493616E+02  0.67115845800E+02  0.72950773136E+02  0.47000000000E+01 0.  1.
<mgrwt>
<rscale>  2 0.28542731E+03</rscale>
<asrwt>0</asrwt>
<pdfrwt beam="1">  1       21 0.22109841E+00 0.28596613E+03</pdfrwt>
<pdfrwt beam="2">  1       21 0.11432007E-01 0.28596613E+03</pdfrwt>
<totfact> 0.58889837E+03</totfact>
</mgrwt>
</event>
<event>
12    1  0.2791583E-001  0.1771167E+03  0.7546771E-02  0.1171682E+00
         21   -1    0    0  502  503  0.00000000000E+00  0.00000000000E+00  0.97461220149E+02  0.97461220149E+02  0.00000000000E+00 0.  1.
         21   -1    0    0  503  504 -0.00000000000E+00 -0.00000000000E+00 -0.39116844380E+03  0.39116844380E+03  0.00000000000E+00 0.  1.
         -6    2    1    2    0  504 -0.15053970571E+02  0.28658299057E+02 -0.39936015597E+02  0.18156325579E+03  0.17413331208E+03 0.  0.
        -24    2    3    3    0    0 -0.70708000282E+02 -0.99012364203E+01 -0.23913961389E+02  0.11182800630E+03  0.82679922945E+02 0.  0.
          6    2    1    2  502    0  0.15053970571E+02 -0.28658299057E+02 -0.25377120805E+03  0.30706640816E+03  0.16982942280E+03 0.  0.
         24    2    5    5    0    0 -0.97610273695E+01 -0.19927948502E+02 -0.26507923492E+03  0.27804978163E+03  0.80946151813E+02 0.  0.
          2    1    6    6  501    0 -0.13645223007E+02  0.22797238554E+02 -0.18771981183E+03  0.18959070112E+03  0.00000000000E+00 0. -1.
         -1    1    6    6    0  501  0.38841956375E+01 -0.42725187056E+02 -0.77359423086E+02  0.88459080511E+02  0.00000000000E+00 0.  1.
          5    1    5    5  502    0  0.24814997940E+02 -0.87303505549E+01  0.11308026866E+02  0.29016626530E+02  0.47000000000E+01 0. -1.
         11    1    4    4    0    0 -0.47679050909E+02  0.20806799590E+02 -0.44334469992E+02  0.68350274573E+02  0.00000000000E+00 0. -1.
        -12    1    4    4    0    0 -0.23028949372E+02 -0.30708036011E+02  0.20420508603E+02  0.43477731731E+02  0.00000000000E+00 0.  1.
         -5    1    3    3    0  504  0.55654029711E+02  0.38559535477E+02 -0.16022054209E+02  0.69735249482E+02  0.47000000000E+01 0.  1.
<mgrwt>
<rscale>  2 0.17604971E+03</rscale>
<asrwt>0</asrwt>
<pdfrwt beam="1">  1       21 0.14994034E-01 0.17711671E+03</pdfrwt>
<pdfrwt beam="2">  1       21 0.60179761E-01 0.17711671E+03</pdfrwt>
<totfact> 0.10167340E+05</totfact>
</mgrwt>
</event>
<event>
12    1  0.2791583E-001  0.2060592E+03  0.7546771E-02  0.1144807E+00
         21   -1    0    0  502  503  0.00000000000E+00  0.00000000000E+00  0.70002886359E+03  0.70002886359E+03  0.00000000000E+00 0. -1.
         21   -1    0    0  503  504 -0.00000000000E+00 -0.00000000000E+00 -0.60789631379E+02  0.60789631379E+02  0.00000000000E+00 0. -1.
         -6    2    1    2    0  504  0.10481915536E+03  0.40361336528E+02  0.34381841993E+03  0.40063266262E+03  0.17227690403E+03 0.  0.
        -24    2    3    3    0    0  0.73629149863E+02  0.85012559383E+02  0.30140389080E+03  0.33143995761E+03  0.79748060495E+02 0.  0.
          6    2    1    2  502    0 -0.10481915536E+03 -0.40361336528E+02  0.29542081228E+03  0.36018583234E+03  0.17275498451E+03 0.  0.
         24    2    5    5    0    0  0.56307375666E+01  0.11303454415E+02  0.96279361436E+02  0.12663104880E+03  0.81278741344E+02 0.  0.
          4    1    6    6  501    0  0.20509780341E+02 -0.27641134611E+02  0.20284335001E+02  0.39951691562E+02  0.00000000000E+00 0. -1.
         -3    1    6    6    0  501 -0.14879042774E+02  0.38944589026E+02  0.75995026436E+02  0.86679357238E+02  0.00000000000E+00 0.  1.
          5    1    5    5  502    0 -0.11044989293E+03 -0.51664790942E+02  0.19914145085E+03  0.23355478354E+03  0.47000000000E+01 0. -1.
         11    1    4    4    0    0  0.19894182265E+02  0.29072627878E+02  0.22148527967E+02  0.41611939042E+02  0.00000000000E+00 0. -1.
        -12    1    4    4    0    0  0.53734967598E+02  0.55939931505E+02  0.27925536283E+03  0.28982801857E+03  0.00000000000E+00 0.  1.
         -5    1    3    3    0  504  0.31190005497E+02 -0.44651222855E+02  0.42414529130E+02  0.69192705011E+02  0.47000000000E+01 0.  1.
<mgrwt>
<rscale>  2 0.20595893E+03</rscale>
<asrwt>0</asrwt>
<pdfrwt beam="1">  1       21 0.10769674E+00 0.20605916E+03</pdfrwt>
<pdfrwt beam="2">  1       21 0.93522515E-02 0.20605916E+03</pdfrwt>
<totfact> 0.62351097E+04</totfact>
</mgrwt>
</event>
<event>
12    1  0.2791583E-001  0.2074714E+03  0.7546771E-02  0.1144424E+00
         21   -1    0    0  502  503  0.00000000000E+00  0.00000000000E+00  0.12648428359E+04  0.12648428359E+04  0.00000000000E+00 0.  1.
         21   -1    0    0  503  504 -0.00000000000E+00 -0.00000000000E+00 -0.70515952636E+02  0.70515952636E+02  0.00000000000E+00 0.  1.
         -6    2    1    2    0  504 -0.10537233490E+03  0.40778917461E+02  0.11533652694E+03  0.23737498161E+03  0.17400608718E+03 0.  0.
        -24    2    3    3    0    0 -0.44429818015E+02  0.23972006530E+02 -0.10223535699E+02  0.96719793471E+02  0.81862885003E+02 0.  0.
          6    2    1    2  502    0  0.10537233490E+03 -0.40778917461E+02  0.10789903564E+04  0.10979838070E+04  0.16906212518E+03 0.  0.
         24    2    5    5    0    0  0.11740246901E+03 -0.55262912148E+02  0.10603723718E+04  0.10710908789E+04  0.77516287959E+02 0.  0.
          4    1    6    6  501    0  0.21089339126E+02  0.17021041272E+02  0.11896546159E+03  0.12201334813E+03  0.00000000000E+00 0. -1.
         -3    1    6    6    0  501  0.96313129884E+02 -0.72283953420E+02  0.94140691018E+03  0.94907753079E+03  0.00000000000E+00 0.  1.
          5    1    5    5  502    0 -0.12030134111E+02  0.14483994687E+02  0.18617984590E+02  0.26892928048E+02  0.47000000000E+01 0. -1.
         13    1    4    4    0    0  0.89837504175E+01 -0.22564699410E+02  0.35656882641E+01  0.24547659029E+02  0.00000000000E+00 0. -1.
        -14    1    4    4    0    0 -0.53413568433E+02  0.46536705939E+02 -0.13789223963E+02  0.72172134442E+02  0.00000000000E+00 0.  1.
         -5    1    3    3    0  504 -0.60942516884E+02  0.16806910931E+02  0.12556006264E+03  0.14065518814E+03  0.47000000000E+01 0.  1.
<mgrwt>
<rscale>  2 0.20643140E+03</rscale>
<asrwt>0</asrwt>
<pdfrwt beam="1">  1       21 0.19459119E+00 0.20747137E+03</pdfrwt>
<pdfrwt beam="2">  1       21 0.10848609E-01 0.20747137E+03</pdfrwt>
<totfact> 0.10099194E+04</totfact>
</mgrwt>
</event>
<event>
12    1  0.2791583E-001  0.2249143E+03  0.7546771E-02  0.1130391E+00
         21   -1    0    0  502  503  0.00000000000E+00  0.00000000000E+00  0.42643760034E+02  0.42643760034E+02  0.00000000000E+00 0.  1.
         21   -1    0    0  503  504 -0.00000000000E+00 -0.00000000000E+00 -0.11975800018E+04  0.11975800018E+04  0.00000000000E+00 0. -1.
         -6    2    1    2    0  504 -0.12320346688E+03  0.78270504029E+02 -0.64720198886E+03  0.68516920482E+03  0.17111709092E+03 0.  0.
        -24    2    3    3    0    0 -0.15560516098E+03  0.60880058027E+02 -0.57229558429E+03  0.60159075762E+03  0.80435416702E+02 0.  0.
          6    2    1    2  502    0  0.12320346688E+03 -0.78270504029E+02 -0.50773425292E+03  0.55505455703E+03  0.17025311636E+03 0.  0.
         24    2    5    5    0    0  0.14840573234E+03 -0.44757611422E+02 -0.46073647501E+03  0.49189484452E+03  0.75199291806E+02 0.  0.
          4    1    6    6  501    0  0.98226494908E+02  0.46909349647E+01 -0.21824289216E+03  0.23937503870E+03  0.00000000000E+00 0. -1.
         -3    1    6    6    0  501  0.50179237430E+02 -0.49448546387E+02 -0.24249358285E+03  0.25251980582E+03  0.00000000000E+00 0.  1.
          5    1    5    5  502    0 -0.25202265461E+02 -0.33512892606E+02 -0.46997777915E+02  0.63159712508E+02  0.47000000000E+01 0. -1.
         13    1    4    4    0    0 -0.14398157232E+03  0.78432640810E+02 -0.51922875768E+03  0.54450057403E+03  0.00000000000E+00 0. -1.
        -14    1    4    4    0    0 -0.11623588656E+02 -0.17552582783E+02 -0.53066826608E+02  0.57090183586E+02  0.00000000000E+00 0.  1.
         -5    1    3    3    0  504  0.32401694100E+02  0.17390446002E+02 -0.74906404566E+02  0.83578447208E+02  0.47000000000E+01 0.  1.
<mgrwt>
<rscale>  2 0.22474993E+03</rscale>
<asrwt>0</asrwt>
<pdfrwt beam="1">  1       21 0.65605796E-02 0.22491426E+03</pdfrwt>
<pdfrwt beam="2">  1       21 0.18424305E+00 0.22491426E+03</pdfrwt>
<totfact> 0.28204603E+04</totfact>
</mgrwt>
</event>
<event>
12    1  0.2791583E-001  0.1890019E+03  0.7546771E-02  0.1159536E+00
         21   -1    0    0  502  503  0.00000000000E+00  0.00000000000E+00  0.24960604681E+03  0.24960604681E+03  0.00000000000E+00 0.  1.
         21   -1    0    0  503  504 -0.00000000000E+00 -0.00000000000E+00 -0.37348974901E+03  0.37348974901E+03  0.00000000000E+00 0.  1.
         -6    2    1    2    0  504 -0.69879478425E+02 -0.26308332868E+02 -0.30697472316E+03  0.36049297522E+03  0.17362728657E+03 0.  0.
        -24    2    3    3    0    0 -0.24235101990E+02  0.41167041087E+02 -0.20522220750E+03  0.23006291874E+03  0.92361933114E+02 0.  0.
          6    2    1    2  502    0  0.69879478425E+02  0.26308332868E+02  0.18309102096E+03  0.26260282060E+03  0.17280812928E+03 0.  0.
         24    2    5    5    0    0  0.84793825844E+02 -0.35634144729E+02  0.12628030468E+03  0.17711097436E+03  0.83437382000E+02 0.  0.
          4    1    6    6  501    0  0.10073086284E+02 -0.28644469865E+02  0.17526727176E+00  0.30364509542E+02  0.00000000000E+00 0. -1.
         -3    1    6    6    0  501  0.74720739560E+02 -0.69896748640E+01  0.12610503741E+03  0.14674646482E+03  0.00000000000E+00 0.  1.
          5    1    5    5  502    0 -0.14914347419E+02  0.61942477597E+02  0.56810716277E+02  0.85491846241E+02  0.47000000000E+01 0. -1.
         13    1    4    4    0    0  0.28597929459E+02 -0.13152474092E+01 -0.10666633753E+03  0.11044129213E+03  0.00000000000E+00 0. -1.
        -14    1    4    4    0    0 -0.52833031449E+02  0.42482288496E+02 -0.98555869971E+02  0.11962162661E+03  0.00000000000E+00 0.  1.
         -5    1    3    3    0  504 -0.45644376435E+02 -0.67475373955E+02 -0.10175251565E+03  0.13043005648E+03  0.47000000000E+01 0.  1.
<mgrwt>
<rscale>  2 0.18881352E+03</rscale>
<asrwt>0</asrwt>
<pdfrwt beam="1">  1       21 0.38400930E-01 0.18900186E+03</pdfrwt>
<pdfrwt beam="2">  1       21 0.57459962E-01 0.18900186E+03</pdfrwt>
<totfact> 0.18629173E+04</totfact>
</mgrwt>
</event>
<event>
12    1  0.2791583E-001  0.2025523E+03  0.7546771E-02  0.1147630E+00
         21   -1    0    0  502  503  0.00000000000E+00  0.00000000000E+00  0.23531086382E+04  0.23531086382E+04  0.00000000000E+00 0.  1.
         21   -1    0    0  503  504 -0.00000000000E+00 -0.00000000000E+00 -0.18112207905E+02  0.18112207905E+02  0.00000000000E+00 0.  1.
         -6    2    1    2    0  504  0.64921108310E+02  0.81978817082E+02  0.93605754686E+03  0.95769425854E+03  0.17331844987E+03 0.  0.
        -24    2    3    3    0    0  0.25713764997E+02  0.68834917726E+02  0.34710072504E+03  0.36726881378E+03  0.94910613963E+02 0.  0.
          6    2    1    2  502    0 -0.64921108310E+02 -0.81978817082E+02  0.13989388834E+04  0.14135265875E+04  0.17347085459E+03 0.  0.
         24    2    5    5    0    0 -0.69060827370E+02 -0.12155594000E+03  0.10469934587E+04  0.10593075057E+04  0.79949013295E+02 0.  0.
          4    1    6    6  501    0 -0.71837191772E+02 -0.10221201800E+03  0.65383336430E+03  0.66566203664E+03  0.00000000000E+00 0. -1.
         -3    1    6    6    0  501  0.27763644025E+01 -0.19343922007E+02  0.39316009437E+03  0.39364546907E+03  0.00000000000E+00 0.  1.
          5    1    5    5  502    0  0.41397190595E+01  0.39577122922E+02  0.35194542475E+03  0.35421908184E+03  0.47000000000E+01 0. -1.
         11    1    4    4    0    0 -0.41562686364E+01  0.17457568671E+01  0.22315384128E+03  0.22319937077E+03  0.00000000000E+00 0. -1.
        -12    1    4    4    0    0  0.29870033634E+02  0.67089160859E+02  0.12394688376E+03  0.14406944301E+03  0.00000000000E+00 0.  1.
         -5    1    3    3    0  504  0.39207343313E+02  0.13143899357E+02  0.58895682181E+03  0.59042544476E+03  0.47000000000E+01 0.  1.
<mgrwt>
<rscale>  2 0.20251962E+03</rscale>
<asrwt>0</asrwt>
<pdfrwt beam="1">  1       21 0.36201647E+00 0.20255225E+03</pdfrwt>
<pdfrwt beam="2">  1       21 0.27864954E-02 0.20255225E+03</pdfrwt>
<totfact> 0.10484168E+04</totfact>
</mgrwt>
</event>
<event>
12    1  0.2791583E-001  0.1925775E+03  0.7546771E-02  0.1156638E+00
         21   -1    0    0  502  503  0.00000000000E+00  0.00000000000E+00  0.65456059890E+03  0.65456059890E+03  0.00000000000E+00 0. -1.
         21   -1    0    0  503  504 -0.00000000000E+00 -0.00000000000E+00 -0.27033874929E+03  0.27033874929E+03  0.00000000000E+00 0. -1.
         -6    2    1    2    0  504  0.65378876957E+02  0.52324864102E+02 -0.21941482012E+03  0.29194001116E+03  0.17341804367E+03 0.  0.
        -24    2    3    3    0    0 -0.59107416608E+00 -0.13643335132E+02 -0.16332856260E+03  0.18298315711E+03  0.81364159577E+02 0.  0.
          6    2    1    2  502    0 -0.65378876957E+02 -0.52324864102E+02  0.60363666973E+03  0.63295933702E+03  0.17102047924E+03 0.  0.
         24    2    5    5    0    0  0.63576271416E+01 -0.76877887938E+02  0.34994449652E+03  0.36813715942E+03  0.84339720327E+02 0.  0.
          2    1    6    6  501    0  0.13122315086E+02 -0.46758544691E+02  0.32455282994E+03  0.32816626285E+03  0.00000000000E+00 0. -1.
         -1    1    6    6    0  501 -0.67646879440E+01 -0.30119343246E+02  0.25391666585E+02  0.39970896569E+02  0.00000000000E+00 0.  1.
          5    1    5    5  502    0 -0.71736504099E+02  0.24553023836E+02  0.25369217321E+03  0.26482217760E+03  0.47000000000E+01 0. -1.
         13    1    4    4    0    0 -0.24963691281E+02  0.19294877574E+02 -0.30138185547E+02  0.43632423850E+02  0.00000000000E+00 0. -1.
        -14    1    4    4    0    0  0.24372617115E+02 -0.32938212706E+02 -0.13319037705E+03  0.13935073326E+03  0.00000000000E+00 0.  1.
         -5    1    3    3    0  504  0.65969951123E+02  0.65968199233E+02 -0.56086257528E+02  0.10895685405E+03  0.47000000000E+01 0.  1.
<mgrwt>
<rscale>  2 0.19203621E+03</rscale>
<asrwt>0</asrwt>
<pdfrwt beam="1">  1       21 0.10070163E+00 0.19257753E+03</pdfrwt>
<pdfrwt beam="2">  1       21 0.41590577E-01 0.19257753E+03</pdfrwt>
<totfact> 0.44946385E+03</totfact>
</mgrwt>
</event>
<event>
12    1  0.2791583E-001  0.1810777E+03  0.7546771E-02  0.1167066E+00
         21   -1    0    0  502  503  0.00000000000E+00  0.00000000000E+00  0.75303083713E+02  0.75303083713E+02  0.00000000000E+00 0. -1.
         21   -1    0    0  503  504 -0.00000000000E+00 -0.00000000000E+00 -0.43401706188E+03  0.43401706188E+03  0.00000000000E+00 0. -1.
         -6    2    1    2    0  504  0.58714214034E+02  0.18269768277E+01 -0.16327656860E+03  0.24289017035E+03  0.16995793663E+03 0.  0.
        -24    2    3    3    0    0  0.46461226725E+02 -0.62194843638E+02 -0.12712790582E+03  0.16820586802E+03  0.78133638292E+02 0.  0.
          6    2    1    2  502    0 -0.58714214034E+02 -0.18269768277E+01 -0.19543740957E+03  0.26642997525E+03  0.17128471584E+03 0.  0.
         24    2    5    5    0    0  0.21842175343E+01  0.15706064704E+02 -0.18429485022E+03  0.20191429389E+03  0.80952695965E+02 0.  0.
          2    1    6    6  501    0 -0.35315806741E+02 -0.33799163071E+01 -0.11950499252E+03  0.12465983024E+03  0.00000000000E+00 0. -1.
         -1    1    6    6    0  501  0.37500024275E+02  0.19085981011E+02 -0.64789857704E+02  0.77254463645E+02  0.00000000000E+00 0.  1.
          5    1    5    5  502    0 -0.60898431568E+02 -0.17533041532E+02 -0.11142559350E+02  0.64515681362E+02  0.47000000000E+01 0. -1.
         13    1    4    4    0    0  0.62821003464E+02 -0.25283705112E+02 -0.94701841954E+02  0.11642243379E+03  0.00000000000E+00 0. -1.
        -14    1    4    4    0    0 -0.16359776739E+02 -0.36911138526E+02 -0.32426063866E+02  0.51783434225E+02  0.00000000000E+00 0.  1.
         -5    1    3    3    0  504  0.12252987309E+02  0.64021820466E+02 -0.36148662778E+02  0.74684302329E+02  0.47000000000E+01 0.  1.
<mgrwt>
<rscale>  2 0.18076330E+03</rscale>
<asrwt>0</asrwt>
<pdfrwt beam="1">  1       21 0.11585090E-01 0.18107775E+03</pdfrwt>
<pdfrwt beam="2">  1       21 0.66771856E-01 0.18107775E+03</pdfrwt>
<totfact> 0.12896121E+05</totfact>
</mgrwt>
</event>
<event>
12    1  0.2791583E-001  0.2704372E+03  0.7546771E-02  0.1101935E+00
         21   -1    0    0  502  503  0.00000000000E+00  0.00000000000E+00  0.18030665520E+04  0.18030665520E+04  0.00000000000E+00 0. -1.
         21   -1    0    0  503  504 -0.00000000000E+00 -0.00000000000E+00 -0.46316739115E+02  0.46316739115E+02  0.00000000000E+00 0.  1.
         -6    2    1    2    0  504 -0.18670191492E+03 -0.90666674085E+02  0.12385466436E+04  0.12677279060E+04  0.17337302143E+03 0.  0.
        -24    2    3    3    0    0 -0.88037659275E+02  0.28384889709E+01  0.79368997923E+03  0.80254257448E+03  0.79825523877E+02 0.  0.
          6    2    1    2  502    0  0.18670191492E+03  0.90666674085E+02  0.51820316926E+03  0.58165538505E+03  0.16343320196E+03 0.  0.
         24    2    5    5    0    0  0.71994672055E+02  0.14498881903E+02  0.12855413278E+03  0.16836644767E+03  0.80172596724E+02 0.  0.
          2    1    6    6  501    0  0.77837508624E+02 -0.14469785220E+02  0.93179776899E+02  0.12227233234E+03  0.00000000000E+00 0. -1.
         -1    1    6    6    0  501 -0.58428365688E+01  0.28968667123E+02  0.35374355886E+02  0.46094115333E+02  0.00000000000E+00 0.  1.
          5    1    5    5  502    0  0.11470724286E+03  0.76167792182E+02  0.38964903647E+03  0.41328893737E+03  0.47000000000E+01 0. -1.
         13    1    4    4    0    0 -0.44245540313E+02  0.37178785244E+02  0.28379169156E+03  0.28961639130E+03  0.00000000000E+00 0. -1.
        -14    1    4    4    0    0 -0.43792118962E+02 -0.34340296273E+02  0.50989828767E+03  0.51292618319E+03  0.00000000000E+00 0.  1.
         -5    1    3    3    0  504 -0.98664255641E+02 -0.93505163056E+02  0.44485666437E+03  0.46518533155E+03  0.47000000000E+01 0.  1.
<mgrwt>
<rscale>  2 0.26885785E+03</rscale>
<asrwt>0</asrwt>
<pdfrwt beam="1">  1       21 0.27739480E+00 0.27043716E+03</pdfrwt>
<pdfrwt beam="2">  1       21 0.71256536E-02 0.27043716E+03</pdfrwt>
<totfact> 0.62944497E+03</totfact>
</mgrwt>
</event>
<event>
12    1  0.2791583E-001  0.2457128E+03  0.7546771E-02  0.1116073E+00
         21   -1    0    0  502  503  0.00000000000E+00  0.00000000000E+00  0.17278301716E+03  0.17278301716E+03  0.00000000000E+00 0.  1.
         21   -1    0    0  503  504 -0.00000000000E+00 -0.00000000000E+00 -0.73251290597E+03  0.73251290597E+03  0.00000000000E+00 0.  1.
         -6    2    1    2    0  504 -0.15830245192E+03  0.72556709353E+02 -0.60736151082E+03  0.65518149238E+03  0.17335120644E+03 0.  0.
        -24    2    3    3    0    0 -0.10809767835E+02  0.24889360628E+02 -0.28917731877E+03  0.30121886996E+03  0.79830787173E+02 0.  0.
          6    2    1    2  502    0  0.15830245192E+03 -0.72556709353E+02  0.47631622014E+02  0.25011443074E+03  0.17310203549E+03 0.  0.
         24    2    5    5    0    0  0.16688714445E+03 -0.10503146419E+03  0.46530926056E+02  0.21617907780E+03  0.75401187939E+02 0.  0.
          4    1    6    6  501    0  0.89926729348E+02 -0.55172892585E+02  0.63189552736E+02  0.12297879615E+03  0.00000000000E+00 0. -1.
         -3    1    6    6    0  501  0.76960415107E+02 -0.49858571609E+02 -0.16658626680E+02  0.93200281647E+02  0.00000000000E+00 0.  1.
          5    1    5    5  502    0 -0.85846925304E+01  0.32474754842E+02  0.11006959577E+01  0.33935352944E+02  0.47000000000E+01 0. -1.
         11    1    4    4    0    0 -0.28060091697E+02  0.16718866436E+02 -0.27623017160E+03  0.27815462776E+03  0.00000000000E+00 0. -1.
        -12    1    4    4    0    0  0.17250323862E+02  0.81704941922E+01 -0.12947147161E+02  0.23064242201E+02  0.00000000000E+00 0.  1.
         -5    1    3    3    0  504 -0.14749268409E+03  0.47667348725E+02 -0.31818419206E+03  0.35396262242E+03  0.47000000000E+01 0.  1.
<mgrwt>
<rscale>  2 0.24566886E+03</rscale>
<asrwt>0</asrwt>
<pdfrwt beam="1">  1       21 0.26582002E-01 0.24571281E+03</pdfrwt>
<pdfrwt beam="2">  1       21 0.11269429E+00 0.24571281E+03</pdfrwt>
<totfact> 0.80015662E+03</totfact>
</mgrwt>
</event>
<event>
12    1  0.2791583E-001  0.1833645E+03  0.7546771E-02  0.1166362E+00
         21   -1    0    0  502  503  0.00000000000E+00  0.00000000000E+00  0.70182237299E+03  0.70182237299E+03  0.00000000000E+00 0. -1.
         21   -1    0    0  503  504 -0.00000000000E+00 -0.00000000000E+00 -0.47398602525E+02  0.47398602525E+02  0.00000000000E+00 0. -1.
         -6    2    1    2    0  504  0.51735225077E+02 -0.35883984942E+02  0.25649556989E+03  0.31107785726E+03  0.16436320153E+03 0.  0.
        -24    2    3    3    0    0 -0.33227038592E+02 -0.27732183229E+02  0.94540152041E+02  0.12794761539E+03  0.74563005939E+02 0.  0.
          6    2    1    2  502    0 -0.51735225077E+02  0.35883984942E+02  0.39792820057E+03  0.43814311825E+03  0.17221598466E+03 0.  0.
         24    2    5    5    0    0 -0.27790105315E+02 -0.46212527468E+02  0.18939844541E+03  0.21271030143E+03  0.80411526312E+02 0.  0.
          2    1    6    6  501    0  0.23298758162E+02 -0.30989532300E+02  0.48680527275E+02  0.62233246579E+02  0.00000000000E+00 0. -1.
         -1    1    6    6    0  501 -0.51088863478E+02 -0.15222995169E+02  0.14071791813E+03  0.15047705485E+03  0.00000000000E+00 0.  1.
          5    1    5    5  502    0 -0.23945119762E+02  0.82096512410E+02  0.20852975517E+03  0.22543281682E+03  0.47000000000E+01 0. -1.
         13    1    4    4    0    0  0.26328706538E+01 -0.39709396355E+02  0.76112006061E+02  0.85888332347E+02  0.00000000000E+00 0. -1.
        -14    1    4    4    0    0 -0.35859909246E+02  0.11977213126E+02  0.18428145980E+02  0.42059283038E+02  0.00000000000E+00 0.  1.
         -5    1    3    3    0  504  0.84962263669E+02 -0.81518017133E+01  0.16195541785E+03  0.18313024188E+03  0.47000000000E+01 0.  1.
<mgrwt>
<rscale>  2 0.18149751E+03</rscale>
<asrwt>0</asrwt>
<pdfrwt beam="1">  1       21 0.10797267E+00 0.18336450E+03</pdfrwt>
<pdfrwt beam="2">  1       21 0.72920932E-02 0.18336450E+03</pdfrwt>
<totfact> 0.96660131E+04</totfact>
</mgrwt>
</event>
<event>
12    1  0.2791583E-001  0.2180318E+03  0.7546771E-02  0.1135994E+00
         21   -1    0    0  502  503  0.00000000000E+00  0.00000000000E+00  0.40800523324E+03  0.40800523324E+03  0.00000000000E+00 0.  1.
         21   -1    0    0  503  504 -0.00000000000E+00 -0.00000000000E+00 -0.44798627574E+03  0.44798627574E+03  0.00000000000E+00 0.  1.
         -6    2    1    2    0  504  0.13303375277E+03  0.73319752632E+01 -0.38916886711E+03  0.44608324326E+03  0.17258654511E+03 0.  0.
        -24    2    3    3    0    0  0.13443791632E+03  0.26069591319E+01 -0.18766704101E+03  0.24446634572E+03  0.80402278117E+02 0.  0.
          6    2    1    2  502    0 -0.13303375277E+03 -0.73319752632E+01  0.34918782460E+03  0.40990826572E+03  0.16834759346E+03 0.  0.
         24    2    5    5    0    0 -0.15768976467E+03 -0.28224175019E+02  0.28142098318E+03  0.33468301909E+03  0.84571198176E+02 0.  0.
          4    1    6    6  501    0 -0.12404223476E+03 -0.53278158866E+02  0.24204464125E+03  0.27714733730E+03  0.00000000000E+00 0. -1.
         -3    1    6    6    0  501 -0.33647529916E+02  0.25053983847E+02  0.39376341929E+02  0.57535681796E+02  0.00000000000E+00 0.  1.
          5    1    5    5  502    0  0.24656011905E+02  0.20892199756E+02  0.67766841425E+02  0.75225246629E+02  0.47000000000E+01 0. -1.
         13    1    4    4    0    0  0.14084160770E+03 -0.93479339204E+01 -0.18046739831E+03  0.22911181589E+03  0.00000000000E+00 0. -1.
        -14    1    4    4    0    0 -0.64036913812E+01  0.11954893052E+02 -0.71996427054E+01  0.15354529829E+02  0.00000000000E+00 0.  1.
         -5    1    3    3    0  504 -0.14041635565E+01  0.47250161313E+01 -0.20150182609E+03  0.20161689754E+03  0.47000000000E+01 0.  1.
<mgrwt>
<rscale>  2 0.21719199E+03</rscale>
<asrwt>0</asrwt>
<pdfrwt beam="1">  1       21 0.62770036E-01 0.21803177E+03</pdfrwt>
<pdfrwt beam="2">  1       21 0.68920965E-01 0.21803177E+03</pdfrwt>
<totfact> 0.44204804E+03</totfact>
</mgrwt>
</event>
<event>
12    1  0.2791583E-001  0.1804809E+03  0.7546771E-02  0.1167655E+00
         21   -1    0    0  502  503  0.00000000000E+00  0.00000000000E+00  0.21082435691E+03  0.21082435691E+03  0.00000000000E+00 0.  1.
         21   -1    0    0  503  504 -0.00000000000E+00 -0.00000000000E+00 -0.20234306604E+03  0.20234306604E+03  0.00000000000E+00 0.  1.
         -6    2    1    2    0  504 -0.47254880558E+02 -0.24703862539E+02 -0.97361811620E+02  0.20506745803E+03  0.17242399896E+03 0.  0.
        -24    2    3    3    0    0 -0.22794181234E+02  0.41253519714E+02 -0.11496372536E+02  0.93965407127E+02  0.80472999001E+02 0.  0.
          6    2    1    2  502    0  0.47254880558E+02  0.24703862539E+02  0.10584310249E+03  0.20809996492E+03  0.17105416830E+03 0.  0.
         24    2    5    5    0    0  0.81496688003E+02  0.58865307179E+02  0.74840585944E+02  0.15045665040E+03  0.83242151578E+02 0.  0.
          4    1    6    6  501    0  0.53973658749E+01  0.45703391513E+02  0.53013454100E+02  0.70202263993E+02  0.00000000000E+00 0. -1.
         -3    1    6    6    0  501  0.76099322128E+02  0.13161915666E+02  0.21827131844E+02  0.80254386403E+02  0.00000000000E+00 0.  1.
          5    1    5    5  502    0 -0.34241807445E+02 -0.34161444640E+02  0.31002516546E+02  0.57643314524E+02  0.47000000000E+01 0. -1.
         11    1    4    4    0    0  0.22316528299E+02  0.33424129750E+01  0.17248359363E+02  0.28402553768E+02  0.00000000000E+00 0. -1.
        -12    1    4    4    0    0 -0.45110709533E+02  0.37911106739E+02 -0.28744731899E+02  0.65562853360E+02  0.00000000000E+00 0.  1.
         -5    1    3    3    0  504 -0.24460699324E+02 -0.65957382253E+02 -0.85865439084E+02  0.11110205090E+03  0.47000000000E+01 0.  1.
<mgrwt>
<rscale>  2 0.18015291E+03</rscale>
<asrwt>0</asrwt>
<pdfrwt beam="1">  1       21 0.32434517E-01 0.18048086E+03</pdfrwt>
<pdfrwt beam="2">  1       21 0.31129702E-01 0.18048086E+03</pdfrwt>
<totfact> 0.91107975E+04</totfact>
</mgrwt>
</event>
<event>
12    1  0.2791583E-001  0.2028059E+03  0.7546771E-02  0.1147408E+00
         21   -1    0    0  502  503  0.00000000000E+00  0.00000000000E+00  0.34879149115E+02  0.34879149115E+02  0.00000000000E+00 0. -1.
         21   -1    0    0  503  504 -0.00000000000E+00 -0.00000000000E+00 -0.13852256504E+04  0.13852256504E+04  0.00000000000E+00 0. -1.
         -6    2    1    2    0  504 -0.98631478612E+02  0.38932074264E+02 -0.94937622800E+03  0.97079630572E+03  0.17287674782E+03 0.  0.
        -24    2    3    3    0    0 -0.12424472255E+03  0.53301987474E+02 -0.89700190414E+03  0.91056597723E+03  0.78994492859E+02 0.  0.
          6    2    1    2  502    0  0.98631478612E+02 -0.38932074264E+02 -0.40097027325E+03  0.44930849375E+03  0.17279203556E+03 0.  0.
         24    2    5    5    0    0  0.44249238976E+02 -0.41775697646E+02 -0.37556997877E+03  0.38903595323E+03  0.81197043583E+02 0.  0.
          2    1    6    6  501    0  0.47586443457E+02 -0.27145280842E+02 -0.10851815854E+03  0.12156285044E+03  0.00000000000E+00 0. -1.
         -1    1    6    6    0  501 -0.33372044813E+01 -0.14630416804E+02 -0.26705182023E+03  0.26747310280E+03  0.00000000000E+00 0.  1.
          5    1    5    5  502    0  0.54382239636E+02  0.28436233829E+01 -0.25400294473E+02  0.60272540523E+02  0.47000000000E+01 0. -1.
         11    1    4    4    0    0 -0.92150068829E+02 -0.11883458618E+01 -0.58564305094E+03  0.59284975370E+03  0.00000000000E+00 0. -1.
        -12    1    4    4    0    0 -0.32094653725E+02  0.54490333335E+02 -0.31135885320E+03  0.31771622353E+03  0.00000000000E+00 0.  1.
         -5    1    3    3    0  504  0.25613243942E+02 -0.14369913210E+02 -0.52374323855E+02  0.60230328492E+02  0.47000000000E+01 0.  1.
<mgrwt>
<rscale>  2 0.20278788E+03</rscale>
<asrwt>0</asrwt>
<pdfrwt beam="1">  1       21 0.53660228E-02 0.20280593E+03</pdfrwt>
<pdfrwt beam="2">  1       21 0.21311164E+00 0.20280593E+03</pdfrwt>
<totfact> 0.26270903E+04</totfact>
</mgrwt>
</event>
<event>
12    1  0.2791583E-001  0.2136285E+03  0.7546771E-02  0.1138957E+00
         21   -1    0    0  502  503  0.00000000000E+00  0.00000000000E+00  0.80236113113E+02  0.80236113113E+02  0.00000000000E+00 0. -1.
         21   -1    0    0  503  504 -0.00000000000E+00 -0.00000000000E+00 -0.66495712008E+03  0.66495712008E+03  0.00000000000E+00 0. -1.
         -6    2    1    2    0  504  0.24745234958E+02 -0.11991913231E+03 -0.43708612451E+03  0.48649913154E+03  0.17505484799E+03 0.  0.
        -24    2    3    3    0    0  0.31466835342E+02 -0.49983535102E+02 -0.38777322251E+03  0.40053390618E+03  0.81060609385E+02 0.  0.
          6    2    1    2  502    0 -0.24745234958E+02  0.11991913231E+03 -0.14763488247E+03  0.25869410166E+03  0.17359048006E+03 0.  0.
         24    2    5    5    0    0  0.13071586081E+02 -0.14265693975E+02 -0.67603952450E+02  0.97875199423E+02  0.68079981550E+02 0.  0.
          2    1    6    6  501    0  0.44842805603E+01  0.23244628128E+02 -0.50482172298E+02  0.55757252702E+02  0.00000000000E+00 0. -1.
         -1    1    6    6    0  501  0.85873055205E+01 -0.37510322103E+02 -0.17121780152E+02  0.42117946721E+02  0.00000000000E+00 0.  1.
          5    1    5    5  502    0 -0.37816821039E+02  0.13418482628E+03 -0.80030930016E+02  0.16081890224E+03  0.47000000000E+01 0. -1.
         13    1    4    4    0    0 -0.16527995713E+02 -0.12889012349E+02 -0.23831943748E+03  0.23923932695E+03  0.00000000000E+00 0. -1.
        -14    1    4    4    0    0  0.47994831056E+02 -0.37094522753E+02 -0.14945378503E+03  0.16129457923E+03  0.00000000000E+00 0.  1.
         -5    1    3    3    0  504 -0.67216003841E+01 -0.69935597204E+02 -0.49312901994E+02  0.85965225359E+02  0.47000000000E+01 0.  1.
<mgrwt>
<rscale>  2 0.21332827E+03</rscale>
<asrwt>0</asrwt>
<pdfrwt beam="1">  1       21 0.12344017E-01 0.21362847E+03</pdfrwt>
<pdfrwt beam="2">  1       21 0.10230109E+00 0.21362847E+03</pdfrwt>
<totfact> 0.42906421E+04</totfact>
</mgrwt>
</event>
<event>
12    1  0.2791583E-001  0.3042901E+03  0.7546771E-02  0.1083249E+00
         21   -1    0    0  502  503  0.00000000000E+00  0.00000000000E+00  0.19978770824E+03  0.19978770824E+03  0.00000000000E+00 0. -1.
         21   -1    0    0  503  504 -0.00000000000E+00 -0.00000000000E+00 -0.65938950565E+03  0.65938950565E+03  0.00000000000E+00 0.  1.
         -6    2    1    2    0  504 -0.13887300162E+03 -0.20793243553E+03 -0.46524848946E+03  0.55592143403E+03  0.17340956012E+03 0.  0.
        -24    2    3    3    0    0 -0.20047705690E+02 -0.14031314375E+03 -0.30110787971E+03  0.34224867174E+03  0.79865570007E+02 0.  0.
          6    2    1    2  502    0  0.13887300162E+03  0.20793243553E+03  0.56466920566E+01  0.30325577986E+03  0.17149511528E+03 0.  0.
         24    2    5    5    0    0  0.37386005932E+02  0.25038931396E+02  0.17510177423E+02  0.93702740196E+02  0.80305265592E+02 0.  0.
          4    1    6    6  501    0 -0.20408428646E+02  0.15543370529E+02 -0.11767204801E+02  0.28223526286E+02  0.00000000000E+00 0. -1.
         -3    1    6    6    0  501  0.57794434578E+02  0.94955608674E+01  0.29277382223E+02  0.65479213910E+02  0.00000000000E+00 0.  1.
          5    1    5    5  502    0  0.10148699569E+03  0.18289350413E+03 -0.11863485366E+02  0.20955303967E+03  0.47000000000E+01 0. -1.
         13    1    4    4    0    0 -0.74877771541E+01 -0.16962813723E+02 -0.22328587554E+01  0.18675907323E+02  0.00000000000E+00 0. -1.
        -14    1    4    4    0    0 -0.12559928536E+02 -0.12335033003E+03 -0.29887502095E+03  0.32357276442E+03  0.00000000000E+00 0.  1.
         -5    1    3    3    0  504 -0.11882529593E+03 -0.67619291773E+02 -0.16414060975E+03  0.21367276229E+03  0.47000000000E+01 0.  1.
<mgrwt>
<rscale>  2 0.30401803E+03</rscale>
<asrwt>0</asrwt>
<pdfrwt beam="1">  1       21 0.30736570E-01 0.30429013E+03</pdfrwt>
<pdfrwt beam="2">  1       21 0.10144454E+00 0.30429013E+03</pdfrwt>
<totfact> 0.75420417E+03</totfact>
</mgrwt>
</event>
<event>
12    1  0.2791583E-001  0.2486433E+03  0.7546771E-02  0.1114206E+00
         21   -1    0    0  502  503  0.00000000000E+00  0.00000000000E+00  0.95774818412E+03  0.95774818412E+03  0.00000000000E+00 0.  1.
         21   -1    0    0  503  504 -0.00000000000E+00 -0.00000000000E+00 -0.65958005069E+02  0.65958005069E+02  0.00000000000E+00 0. -1.
         -6    2    1    2    0  504  0.11268879636E+03  0.14285308467E+03  0.36962493653E+03  0.44547290067E+03  0.16946310191E+03 0.  0.
        -24    2    3    3    0    0  0.67654861923E+02  0.88872967477E+02  0.34398441600E+03  0.37049667380E+03  0.80417175768E+02 0.  0.
          6    2    1    2  502    0 -0.11268879636E+03 -0.14285308467E+03  0.52216524252E+03  0.57823328852E+03  0.16908999622E+03 0.  0.
         24    2    5    5    0    0 -0.10326807103E+03 -0.13844237848E+03  0.53084456154E+03  0.56389365904E+03  0.79683897631E+02 0.  0.
          4    1    6    6  501    0 -0.58888878887E+02 -0.88114950402E+02  0.20033108701E+03  0.22663779245E+03  0.00000000000E+00 0. -1.
         -3    1    6    6    0  501 -0.44379192145E+02 -0.50327428080E+02  0.33051347453E+03  0.33725586660E+03  0.00000000000E+00 0.  1.
          5    1    5    5  502    0 -0.94207253311E+01 -0.44107061837E+01 -0.86793190144E+01  0.14339629471E+02  0.47000000000E+01 0. -1.
         11    1    4    4    0    0  0.70955015696E+02  0.30735251273E+02  0.16375972384E+03  0.18109808689E+03  0.00000000000E+00 0. -1.
        -12    1    4    4    0    0 -0.33001537728E+01  0.58137716204E+02  0.18022469216E+03  0.18939858692E+03  0.00000000000E+00 0.  1.
         -5    1    3    3    0  504  0.45033934439E+02  0.53980117189E+02  0.25640520525E+02  0.74976226869E+02  0.47000000000E+01 0.  1.
<mgrwt>
<rscale>  2 0.24857978E+03</rscale>
<asrwt>0</asrwt>
<pdfrwt beam="1">  1       21 0.14734586E+00 0.24864334E+03</pdfrwt>
<pdfrwt beam="2">  1       21 0.10147386E-01 0.24864334E+03</pdfrwt>
<totfact> 0.23963154E+04</totfact>
</mgrwt>
</event>
<event>
12    1  0.2791583E-001  0.1787838E+03  0.7546771E-02  0.1171973E+00
         21   -1    0    0  502  503  0.00000000000E+00  0.00000000000E+00  0.15148497336E+03  0.15148497336E+03  0.00000000000E+00 0.  1.
         21   -1    0    0  503  504 -0.00000000000E+00 -0.00000000000E+00 -0.48365108257E+03  0.48365108257E+03  0.00000000000E+00 0.  1.
         -6    2    1    2    0  504  0.31126255587E+02 -0.41206659101E+02 -0.40806460319E+03  0.44090879807E+03  0.15879866277E+03 0.  0.
        -24    2    3    3    0    0  0.53584545586E+02 -0.65795243986E+02 -0.20492557501E+03  0.23500462602E+03  0.77668303076E+02 0.  0.
          6    2    1    2  502    0 -0.31126255587E+02  0.41206659101E+02  0.75898493984E+02  0.19422725786E+03  0.17116312035E+03 0.  0.
         24    2    5    5    0    0 -0.56649821794E+02 -0.19115098614E+02  0.81160360523E+02  0.12834900557E+03  0.79447302068E+02 0.  0.
          4    1    6    6  501    0 -0.39059483635E+02 -0.41891140395E+02  0.19845269643E+02  0.60616380893E+02  0.00000000000E+00 0. -1.
         -3    1    6    6    0  501 -0.17590338159E+02  0.22776041781E+02  0.61315090880E+02  0.67732624675E+02  0.00000000000E+00 0.  1.
          5    1    5    5  502    0  0.25523566207E+02  0.60321757715E+02 -0.52618665393E+01  0.65878252293E+02  0.47000000000E+01 0. -1.
         11    1    4    4    0    0  0.27118077981E+02 -0.18128962017E+02 -0.12382028667E+02  0.34890744490E+02  0.00000000000E+00 0. -1.
        -12    1    4    4    0    0  0.26466467605E+02 -0.47666281969E+02 -0.19254354634E+03  0.20011388153E+03  0.00000000000E+00 0.  1.
         -5    1    3    3    0  504 -0.22458289999E+02  0.24588584885E+02 -0.20313902818E+03  0.20590417205E+03  0.47000000000E+01 0.  1.
<mgrwt>
<rscale>  2 0.17575804E+03</rscale>
<asrwt>0</asrwt>
<pdfrwt beam="1">  1       21 0.23305381E-01 0.17878380E+03</pdfrwt>
<pdfrwt beam="2">  1       21 0.74407859E-01 0.17878380E+03</pdfrwt>
<totfact> 0.28231025E+04</totfact>
</mgrwt>
</event>
<event>
12    1  0.2791583E-001  0.2154365E+03  0.7546771E-02  0.1137595E+00
         21   -1    0    0  502  503  0.00000000000E+00  0.00000000000E+00  0.54948053558E+02  0.54948053558E+02  0.00000000000E+00 0.  1.
         21   -1    0    0  503  504 -0.00000000000E+00 -0.00000000000E+00 -0.84188178970E+03  0.84188178970E+03  0.00000000000E+00 0. -1.
         -6    2    1    2    0  504  0.96603459346E+01 -0.12871917922E+03 -0.41953847079E+03  0.47161999780E+03  0.17248462096E+03 0.  0.
        -24    2    3    3    0    0  0.10154273621E+02 -0.12524053856E+03 -0.19079947572E+03  0.24280574393E+03  0.82230697318E+02 0.  0.
          6    2    1    2  502    0 -0.96603459346E+01  0.12871917922E+03 -0.36739526535E+03  0.42520984546E+03  0.17076938336E+03 0.  0.
         24    2    5    5    0    0  0.37980118706E+02  0.13627040812E+03 -0.30949926769E+03  0.34970705429E+03  0.80579858361E+02 0.  0.
          2    1    6    6  501    0  0.12525558619E+02  0.23711412438E+02 -0.15260029224E+03  0.15493860038E+03  0.00000000000E+00 0. -1.
         -1    1    6    6    0  501  0.25454560087E+02  0.11255899568E+03 -0.15689897545E+03  0.19476845391E+03  0.00000000000E+00 0.  1.
          5    1    5    5  502    0 -0.47640464641E+02 -0.75512289056E+01 -0.57895997664E+02  0.75502791171E+02  0.47000000000E+01 0. -1.
         13    1    4    4    0    0  0.39937006749E+02 -0.47601609522E+02 -0.11286298909E+03  0.12883684273E+03  0.00000000000E+00 0. -1.
        -14    1    4    4    0    0 -0.29782733127E+02 -0.77638929034E+02 -0.77936486623E+02  0.11396890120E+03  0.00000000000E+00 0.  1.
         -5    1    3    3    0  504 -0.49392768668E+00 -0.34786406614E+01 -0.22873899507E+03  0.22881425387E+03  0.47000000000E+01 0.  1.
<mgrwt>
<rscale>  2 0.21509300E+03</rscale>
<asrwt>0</asrwt>
<pdfrwt beam="1">  1       21 0.84535469E-02 0.21543652E+03</pdfrwt>
<pdfrwt beam="2">  1       21 0.12952027E+00 0.21543652E+03</pdfrwt>
<totfact> 0.46977986E+04</totfact>
</mgrwt>
</event>
<event>
12    1  0.2791583E-001  0.1750252E+03  0.7546771E-02  0.1172936E+00
         21   -1    0    0  502  503  0.00000000000E+00  0.00000000000E+00  0.48814709230E+03  0.48814709230E+03  0.00000000000E+00 0. -1.
         21   -1    0    0  503  504 -0.00000000000E+00 -0.00000000000E+00 -0.14128701383E+03  0.14128701383E+03  0.00000000000E+00 0. -1.
         -6    2    1    2    0  504 -0.32138395869E+01 -0.22187719340E+02 -0.61491668809E+02  0.18551296472E+03  0.17358344130E+03 0.  0.
        -24    2    3    3    0    0  0.11075263838E+02 -0.79994423215E+02 -0.52110930726E+02  0.12504907685E+03  0.79999708156E+02 0.  0.
          6    2    1    2  502    0  0.32138395869E+01  0.22187719340E+02  0.40835174727E+03  0.44392114141E+03  0.17266211696E+03 0.  0.
         24    2    5    5    0    0  0.65469340188E+02 -0.59263978610E+00  0.18511787154E+03  0.21100453531E+03  0.77250901841E+02 0.  0.
          2    1    6    6  501    0  0.80530961817E+02  0.12265125014E+02  0.14866769489E+03  0.16952213014E+03  0.00000000000E+00 0. -1.
         -1    1    6    6    0  501 -0.15061621629E+02 -0.12857764800E+02  0.36450176646E+02  0.41482405177E+02  0.00000000000E+00 0.  1.
          5    1    5    5  502    0 -0.62255500601E+02  0.22780359127E+02  0.22323387574E+03  0.23291660609E+03  0.47000000000E+01 0. -1.
         11    1    4    4    0    0 -0.13422357426E+02 -0.68930447783E+02 -0.64591366162E+02  0.95412844487E+02  0.00000000000E+00 0. -1.
        -12    1    4    4    0    0  0.24497621264E+02 -0.11063975432E+02  0.12480435435E+02  0.29636232362E+02  0.00000000000E+00 0.  1.
         -5    1    3    3    0  504 -0.14289103424E+02  0.57806703875E+02 -0.93807380823E+01  0.60463887871E+02  0.47000000000E+01 0.  1.
<mgrwt>
<rscale>  2 0.17479637E+03</rscale>
<asrwt>0</asrwt>
<pdfrwt beam="1">  1       21 0.75099552E-01 0.17502524E+03</pdfrwt>
<pdfrwt beam="2">  1       21 0.21736464E-01 0.17502524E+03</pdfrwt>
<totfact> 0.31606074E+04</totfact>
</mgrwt>
</event>
<event>
12    1  0.2791583E-001  0.3111365E+03  0.7546771E-02  0.1080174E+00
         21   -1    0    0  502  503  0.00000000000E+00  0.00000000000E+00  0.36997390657E+03  0.36997390657E+03  0.00000000000E+00 0.  1.
         21   -1    0    0  503  504 -0.00000000000E+00 -0.00000000000E+00 -0.26330510852E+03  0.26330510852E+03  0.00000000000E+00 0. -1.
         -6    2    1    2    0  504  0.25440853368E+03 -0.18976526810E+02  0.13363995497E+02  0.31142333954E+03  0.17810696071E+03 0.  0.
        -24    2    3    3    0    0  0.70967935826E+02 -0.98613546987E+01  0.56931367228E+02  0.12260134616E+03  0.81585631543E+02 0.  0.
          6    2    1    2  502    0 -0.25440853368E+03  0.18976526810E+02  0.93304802553E+02  0.32185567554E+03  0.17263104913E+03 0.  0.
         24    2    5    5    0    0 -0.20464792980E+03  0.25845910719E+02  0.13293991633E+03  0.25769697872E+03  0.78650653018E+02 0.  0.
          2    1    6    6  501    0 -0.91311832510E+02 -0.27614981719E+02  0.54720008015E+02  0.10997598487E+03  0.00000000000E+00 0. -1.
         -1    1    6    6    0  501 -0.11333609729E+03  0.53460892437E+02  0.78219908311E+02  0.14772099385E+03  0.00000000000E+00 0.  1.
          5    1    5    5  502    0 -0.49760603880E+02 -0.68693839084E+01 -0.39635113773E+02  0.64158696820E+02  0.47000000000E+01 0. -1.
         13    1    4    4    0    0  0.24864228841E+02  0.50553618258E+01 -0.19570928892E+02  0.32043842103E+02  0.00000000000E+00 0. -1.
        -14    1    4    4    0    0  0.46103706985E+02 -0.14916716524E+02  0.76502296120E+02  0.90557504059E+02  0.00000000000E+00 0.  1.
         -5    1    3    3    0  504  0.18344059785E+03 -0.91151721117E+01 -0.43567371731E+02  0.18882199337E+03  0.47000000000E+01 0.  1.
<mgrwt>
<rscale>  2 0.31035807E+03</rscale>
<asrwt>0</asrwt>
<pdfrwt beam="1">  1       21 0.56919063E-01 0.31113647E+03</pdfrwt>
<pdfrwt beam="2">  1       21 0.40508478E-01 0.31113647E+03</pdfrwt>
<totfact> 0.16041742E+04</totfact>
</mgrwt>
</event>
<event>
12    1  0.2791583E-001  0.2161744E+03  0.7546771E-02  0.1137587E+00
         21   -1    0    0  502  503  0.00000000000E+00  0.00000000000E+00  0.42575777165E+03  0.42575777165E+03  0.00000000000E+00 0.  1.
         21   -1    0    0  503  504 -0.00000000000E+00 -0.00000000000E+00 -0.19240104274E+03  0.19240104274E+03  0.00000000000E+00 0.  1.
         -6    2    1    2    0  504  0.51385488137E+02 -0.11235986265E+03 -0.89142424000E+02  0.22991007140E+03  0.17218322232E+03 0.  0.
        -24    2    3    3    0    0 -0.23831810009E+02 -0.86760318341E+02 -0.39983353664E+02  0.13635964219E+03  0.94339681154E+02 0.  0.
          6    2    1    2  502    0 -0.51385488137E+02  0.11235986265E+03  0.32249915291E+03  0.38824874300E+03  0.17738707869E+03 0.  0.
         24    2    5    5    0    0 -0.46172319824E+01 -0.10654052894E+00  0.19750702067E+03  0.21366041364E+03  0.81365957010E+02 0.  0.
          4    1    6    6  501    0 -0.38214480209E+01  0.39503863802E+02  0.12343665757E+03  0.12966019880E+03  0.00000000000E+00 0. -1.
         -3    1    6    6    0  501 -0.79578396150E+00 -0.39610404331E+02  0.74070363092E+02  0.84000214833E+02  0.00000000000E+00 0.  1.
          5    1    5    5  502    0 -0.46768256155E+02  0.11246640318E+03  0.12499213224E+03  0.17458832936E+03  0.47000000000E+01 0. -1.
         11    1    4    4    0    0 -0.14472110175E+02 -0.10597759458E+03 -0.23872750696E+02  0.10959288641E+03  0.00000000000E+00 0. -1.
        -12    1    4    4    0    0 -0.93596998340E+01  0.19217276237E+02 -0.16110602967E+02  0.26766755779E+02  0.00000000000E+00 0.  1.
         -5    1    3    3    0  504  0.75217298146E+02 -0.25599544308E+02 -0.49159070337E+02  0.93550429211E+02  0.47000000000E+01 0.  1.
<mgrwt>
<rscale>  2 0.21510419E+03</rscale>
<asrwt>0</asrwt>
<pdfrwt beam="1">  1       21 0.65501196E-01 0.21617443E+03</pdfrwt>
<pdfrwt beam="2">  1       21 0.29600160E-01 0.21617443E+03</pdfrwt>
<totfact> 0.23130841E+04</totfact>
</mgrwt>
</event>
<event>
12    1  0.2791583E-001  0.3657828E+03  0.7546771E-02  0.1056340E+00
         21   -1    0    0  502  503  0.00000000000E+00  0.00000000000E+00  0.31300360096E+03  0.31300360096E+03  0.00000000000E+00 0. -1.
         21   -1    0    0  503  504 -0.00000000000E+00 -0.00000000000E+00 -0.45557575345E+03  0.45557575345E+03  0.00000000000E+00 0. -1.
         -6    2    1    2    0  504  0.22345532072E+03 -0.23168485838E+03 -0.16718747760E+03  0.40196928800E+03  0.17325559692E+03 0.  0.
        -24    2    3    3    0    0  0.20597924113E+03 -0.17777834375E+03 -0.75331246307E+02  0.29393696457E+03  0.81801926548E+02 0.  0.
          6    2    1    2  502    0 -0.22345532072E+03  0.23168485838E+03  0.24615325104E+02  0.36661006641E+03  0.17374369803E+03 0.  0.
         24    2    5    5    0    0 -0.20466038603E+03  0.12232768551E+03 -0.54338217853E+01  0.25155667855E+03  0.80008123684E+02 0.  0.
          2    1    6    6  501    0 -0.79679165625E+02  0.90616806184E+02  0.12758673278E+02  0.12133819984E+03  0.00000000000E+00 0. -1.
         -1    1    6    6    0  501 -0.12498122040E+03  0.31710879321E+02 -0.18192495064E+02  0.13021847871E+03  0.00000000000E+00 0.  1.
          5    1    5    5  502    0 -0.18794934690E+02  0.10935717288E+03  0.30049146889E+02  0.11505338786E+03  0.47000000000E+01 0. -1.
         11    1    4    4    0    0  0.61427053438E+02 -0.95218289938E+02 -0.55862791484E+02  0.12633470270E+03  0.00000000000E+00 0. -1.
        -12    1    4    4    0    0  0.14455218769E+03 -0.82560053810E+02 -0.19468454823E+02  0.16760226187E+03  0.00000000000E+00 0.  1.
         -5    1    3    3    0  504  0.17476079587E+02 -0.53906514632E+02 -0.91856231294E+02  0.10803232343E+03  0.47000000000E+01 0.  1.
<mgrwt>
<rscale>  2 0.36572485E+03</rscale>
<asrwt>0</asrwt>
<pdfrwt beam="1">  1       21 0.48154400E-01 0.36578276E+03</pdfrwt>
<pdfrwt beam="2">  1       21 0.70088577E-01 0.36578276E+03</pdfrwt>
<totfact> 0.69409323E+03</totfact>
</mgrwt>
</event>
<event>
12    1  0.2791583E-001  0.2457244E+03  0.7546771E-02  0.1116292E+00
         21   -1    0    0  502  503  0.00000000000E+00  0.00000000000E+00  0.12810260227E+04  0.12810260227E+04  0.00000000000E+00 0.  1.
         21   -1    0    0  503  504 -0.00000000000E+00 -0.00000000000E+00 -0.94281598401E+02  0.94281598401E+02  0.00000000000E+00 0.  1.
         -6    2    1    2    0  504  0.68989818372E+02  0.15727491936E+03  0.10460101699E+03  0.26561629302E+03  0.17353860395E+03 0.  0.
        -24    2    3    3    0    0  0.10508850660E+03  0.11419655095E+03  0.11331482289E+03  0.20854719867E+03  0.81038500214E+02 0.  0.
          6    2    1    2  502    0 -0.68989818372E+02 -0.15727491936E+03  0.10821434073E+04  0.11096913281E+04  0.17574269359E+03 0.  0.
         24    2    5    5    0    0  0.20105113673E+02 -0.12564886111E+03  0.63262310454E+03  0.65031271836E+03  0.80639862126E+02 0.  0.
          2    1    6    6  501    0  0.40747535707E+02 -0.12307925933E+03  0.55603993543E+03  0.57095470533E+03  0.00000000000E+00 0. -1.
         -1    1    6    6    0  501 -0.20642422035E+02 -0.25696017803E+01  0.76583169107E+02  0.79358013025E+02  0.00000000000E+00 0.  1.
          5    1    5    5  502    0 -0.89094932045E+02 -0.31626058244E+02  0.44952030277E+03  0.45937860973E+03  0.47000000000E+01 0. -1.
         13    1    4    4    0    0 -0.83142165813E+01  0.24077375240E+02  0.36726374888E+02  0.44695333182E+02  0.00000000000E+00 0. -1.
        -14    1    4    4    0    0  0.11340272318E+03  0.90119175715E+02  0.76588448003E+02  0.16385186549E+03  0.00000000000E+00 0.  1.
         -5    1    3    3    0  504 -0.36098688229E+02  0.43078368403E+02 -0.87138058996E+01  0.57069094345E+02  0.47000000000E+01 0.  1.
<mgrwt>
<rscale>  2 0.24533059E+03</rscale>
<asrwt>0</asrwt>
<pdfrwt beam="1">  1       21 0.19708091E+00 0.24572442E+03</pdfrwt>
<pdfrwt beam="2">  1       21 0.14504862E-01 0.24572442E+03</pdfrwt>
<totfact> 0.55975330E+03</totfact>
</mgrwt>
</event>
<event>
12    1  0.2791583E-001  0.1788969E+03  0.7546771E-02  0.1169358E+00
         21   -1    0    0  502  503  0.00000000000E+00  0.00000000000E+00  0.45413674293E+03  0.45413674293E+03  0.00000000000E+00 0.  1.
         21   -1    0    0  503  504 -0.00000000000E+00 -0.00000000000E+00 -0.10599556746E+03  0.10599556746E+03  0.00000000000E+00 0.  1.
         -6    2    1    2    0  504  0.21680181152E+02  0.33501086854E+02  0.95516827070E+01  0.17718722363E+03  0.17237089226E+03 0.  0.
        -24    2    3    3    0    0 -0.39342028213E+02  0.66299526439E+02  0.20747787377E+01  0.10734853974E+03  0.74672497525E+02 0.  0.
          6    2    1    2  502    0 -0.21680181152E+02 -0.33501086854E+02  0.33858949277E+03  0.38294508676E+03  0.17438962638E+03 0.  0.
         24    2    5    5    0    0 -0.21311223390E+02 -0.86071151296E+02  0.27944371182E+03  0.30367301596E+03  0.79158709059E+02 0.  0.
          2    1    6    6  501    0 -0.28292798570E+00 -0.95689717668E+02  0.22151407343E+03  0.24129875019E+03  0.00000000000E+00 0. -1.
         -1    1    6    6    0  501 -0.21028295404E+02  0.96185663715E+01  0.57929638390E+02  0.62374265773E+02  0.00000000000E+00 0.  1.
          5    1    5    5  502    0 -0.36895776232E+00  0.52570064443E+02  0.59145780946E+02  0.79272070801E+02  0.47000000000E+01 0. -1.
         11    1    4    4    0    0  0.16886025829E+02  0.42692802728E+02 -0.38874746852E+01  0.46075218203E+02  0.00000000000E+00 0. -1.
        -12    1    4    4    0    0 -0.56228054042E+02  0.23606723712E+02  0.59622534229E+01  0.61273321533E+02  0.00000000000E+00 0.  1.
         -5    1    3    3    0  504  0.61022209366E+02 -0.32798439586E+02  0.74769039693E+01  0.69838683894E+02  0.47000000000E+01 0.  1.
<mgrwt>
<rscale>  2 0.17840302E+03</rscale>
<asrwt>0</asrwt>
<pdfrwt beam="1">  1       21 0.69867190E-01 0.17889688E+03</pdfrwt>
<pdfrwt beam="2">  1       21 0.16307011E-01 0.17889688E+03</pdfrwt>
<totfact> 0.63046692E+04</totfact>
</mgrwt>
</event>
<event>
12    1  0.2791583E-001  0.2204869E+03  0.7546771E-02  0.1133574E+00
         21   -1    0    0  502  503  0.00000000000E+00  0.00000000000E+00  0.30183580541E+03  0.30183580541E+03  0.00000000000E+00 0. -1.
         21   -1    0    0  503  504 -0.00000000000E+00 -0.00000000000E+00 -0.64472777196E+03  0.64472777196E+03  0.00000000000E+00 0.  1.
         -6    2    1    2    0  504  0.28403278863E+02  0.13313152404E+03 -0.58148812182E+03  0.62188657698E+03  0.17344661965E+03 0.  0.
        -24    2    3    3    0    0  0.80535670866E+02  0.12114524251E+03 -0.42657494349E+03  0.45793036313E+03  0.81067077134E+02 0.  0.
          6    2    1    2  502    0 -0.28403278863E+02 -0.13313152404E+03  0.23859615527E+03  0.32467700039E+03  0.17307882692E+03 0.  0.
         24    2    5    5    0    0 -0.52812318843E+02 -0.51399130423E+02  0.55774952999E+02  0.12288089686E+03  0.80980601389E+02 0.  0.
          4    1    6    6  501    0 -0.38672933557E+02  0.94296968323E+01  0.43992917644E+02  0.59328675824E+02  0.00000000000E+00 0. -1.
         -3    1    6    6    0  501 -0.14139385287E+02 -0.60828827256E+02  0.11782035356E+02  0.63552221037E+02  0.00000000000E+00 0.  1.
          5    1    5    5  502    0  0.24409039981E+02 -0.81732393619E+02  0.18282120227E+03  0.20179610353E+03  0.47000000000E+01 0. -1.
         11    1    4    4    0    0  0.43473606808E+02  0.20159946755E+02 -0.65406808695E+02  0.81082850010E+02  0.00000000000E+00 0. -1.
        -12    1    4    4    0    0  0.37062064058E+02  0.10098529576E+03 -0.36116813480E+03  0.37684751312E+03  0.00000000000E+00 0.  1.
         -5    1    3    3    0  504 -0.52132392003E+02  0.11986281530E+02 -0.15491317833E+03  0.16395621385E+03  0.47000000000E+01 0.  1.
<mgrwt>
<rscale>  2 0.22041458E+03</rscale>
<asrwt>0</asrwt>
<pdfrwt beam="1">  1       21 0.46436278E-01 0.22048691E+03</pdfrwt>
<pdfrwt beam="2">  1       21 0.99188888E-01 0.22048691E+03</pdfrwt>
<totfact> 0.36356924E+03</totfact>
</mgrwt>
</event>
<event>
12    1  0.2791583E-001  0.2039550E+03  0.7546771E-02  0.1146958E+00
         21   -1    0    0  502  503  0.00000000000E+00  0.00000000000E+00  0.13851190395E+04  0.13851190395E+04  0.00000000000E+00 0.  1.
         21   -1    0    0  503  504 -0.00000000000E+00 -0.00000000000E+00 -0.62013334958E+02  0.62013334958E+02  0.00000000000E+00 0. -1.
         -6    2    1    2    0  504  0.91177502693E+02  0.56541661560E+02  0.13704675515E+03  0.24366510118E+03  0.17053026696E+03 0.  0.
        -24    2    3    3    0    0  0.60926055422E+02  0.26698059022E+02  0.38621506865E+01  0.10378651262E+03  0.79573572298E+02 0.  0.
          6    2    1    2  502    0 -0.91177502693E+02 -0.56541661560E+02  0.11860589494E+04  0.12034672732E+04  0.17345705494E+03 0.  0.
         24    2    5    5    0    0 -0.82841438964E+02 -0.57050139112E+02  0.11867927438E+04  0.11938559798E+04  0.81839240159E+02 0.  0.
          2    1    6    6  501    0 -0.44528505535E+02  0.13655680765E+02  0.55824557793E+03  0.56018513966E+03  0.00000000000E+00 0. -1.
         -1    1    6    6    0  501 -0.38312933429E+02 -0.70705819877E+02  0.62854716590E+03  0.63367084010E+03  0.00000000000E+00 0.  1.
          5    1    5    5  502    0 -0.83360637286E+01  0.50847755176E+00 -0.73379447041E+00  0.96112934734E+01  0.47000000000E+01 0. -1.
         13    1    4    4    0    0  0.26288189298E+02 -0.21837855648E+02 -0.19958325070E+02  0.39576452285E+02  0.00000000000E+00 0. -1.
        -14    1    4    4    0    0  0.34637866124E+02  0.48535914670E+02  0.23820475757E+02  0.64210060331E+02  0.00000000000E+00 0.  1.
         -5    1    3    3    0  504  0.30251447271E+02  0.29843602538E+02  0.13318460446E+03  0.13987858857E+03  0.47000000000E+01 0.  1.
<mgrwt>
<rscale>  2 0.20333134E+03</rscale>
<asrwt>0</asrwt>
<pdfrwt beam="1">  1       21 0.21309521E+00 0.20395501E+03</pdfrwt>
<pdfrwt beam="2">  1       21 0.95405141E-02 0.20395501E+03</pdfrwt>
<totfact> 0.96900227E+03</totfact>
</mgrwt>
</event>
<event>
12    1  0.2791583E-001  0.1986270E+03  0.7546771E-02  0.1153629E+00
         21   -1    0    0  502  503  0.00000000000E+00  0.00000000000E+00  0.35408106402E+02  0.35408106402E+02  0.00000000000E+00 0.  1.
         21   -1    0    0  503  504 -0.00000000000E+00 -0.00000000000E+00 -0.22774375473E+04  0.22774375473E+04  0.00000000000E+00 0.  1.
         -6    2    1    2    0  504 -0.17311762891E+02  0.69506911179E+02 -0.19877701208E+04  0.19976693221E+04  0.18526132742E+03 0.  0.
        -24    2    3    3    0    0 -0.33313854186E+02  0.25924511962E+02 -0.18489267464E+04  0.18511938461E+04  0.81281296315E+02 0.  0.
          6    2    1    2  502    0  0.17311762891E+02 -0.69506911179E+02 -0.25425932013E+03  0.31517633164E+03  0.17192268704E+03 0.  0.
         24    2    5    5    0    0 -0.58553406446E+01 -0.10328703336E+03 -0.23433770985E+03  0.26938580974E+03  0.83378989883E+02 0.  0.
          4    1    6    6  501    0 -0.15340522626E+02 -0.86765794711E+02 -0.23431633929E+03  0.25033533834E+03  0.00000000000E+00 0. -1.
         -3    1    6    6    0  501  0.94851819809E+01 -0.16521238645E+02 -0.21370565977E-01  0.19050471392E+02  0.00000000000E+00 0.  1.
          5    1    5    5  502    0  0.23167103535E+02  0.33780122177E+02 -0.19921610275E+02  0.45790521907E+02  0.47000000000E+01 0. -1.
         11    1    4    4    0    0  0.66053073935E+01  0.17104998959E+02 -0.92951587439E+02  0.94742855575E+02  0.00000000000E+00 0. -1.
        -12    1    4    4    0    0 -0.39919161579E+02  0.88195130029E+01 -0.17559751590E+04  0.17564509906E+04  0.00000000000E+00 0.  1.
         -5    1    3    3    0  504  0.16002091295E+02  0.43582399217E+02 -0.13884337435E+03  0.14647547593E+03  0.47000000000E+01 0.  1.
<mgrwt>
<rscale>  2 0.19545714E+03</rscale>
<asrwt>0</asrwt>
<pdfrwt beam="1">  1       21 0.54474002E-02 0.19862696E+03</pdfrwt>
<pdfrwt beam="2">  1       21 0.35037506E+00 0.19862696E+03</pdfrwt>
<totfact> 0.40148746E+03</totfact>
</mgrwt>
</event>
<event>
12    1  0.2791583E-001  0.3068677E+03  0.7546771E-02  0.1082088E+00
         21   -1    0    0  502  503  0.00000000000E+00  0.00000000000E+00  0.98261051484E+03  0.98261051484E+03  0.00000000000E+00 0. -1.
         21   -1    0    0  503  504 -0.00000000000E+00 -0.00000000000E+00 -0.21876131007E+03  0.21876131007E+03  0.00000000000E+00 0. -1.
         -6    2    1    2    0  504  0.20720057096E+03  0.14167405202E+03 -0.69951510674E+02  0.31289479139E+03  0.17322333276E+03 0.  0.
        -24    2    3    3    0    0  0.58095086501E+02  0.10685502992E+03 -0.65242724434E+02  0.15963334006E+03  0.80206942793E+02 0.  0.
          6    2    1    2  502    0 -0.20720057096E+03 -0.14167405202E+03  0.83380071544E+03  0.88847703351E+03  0.17653382788E+03 0.  0.
         24    2    5    5    0    0 -0.19313446923E+03 -0.16201630337E+03  0.63427312592E+03  0.68736758225E+03  0.81373147302E+02 0.  0.
          4    1    6    6  501    0 -0.16247554836E+03 -0.12247422539E+03  0.57421868986E+03  0.60920057738E+03  0.00000000000E+00 0. -1.
         -3    1    6    6    0  501 -0.30658920862E+02 -0.39542077973E+02  0.60054436062E+02  0.78167004865E+02  0.00000000000E+00 0.  1.
          5    1    5    5  502    0 -0.14066101739E+02  0.20342251344E+02  0.19952758952E+03  0.20110945127E+03  0.47000000000E+01 0. -1.
         13    1    4    4    0    0  0.71648365463E+02  0.99386892612E+02 -0.37957518374E+02  0.12826541193E+03  0.00000000000E+00 0. -1.
        -14    1    4    4    0    0 -0.13553278961E+02  0.74681373116E+01 -0.27285206061E+02  0.31367928132E+02  0.00000000000E+00 0.  1.
         -5    1    3    3    0  504  0.14910548446E+03  0.34819022099E+02 -0.47087862398E+01  0.15326145133E+03  0.47000000000E+01 0.  1.
<mgrwt>
<rscale>  2 0.30639353E+03</rscale>
<asrwt>0</asrwt>
<pdfrwt beam="1">  1       21 0.15117085E+00 0.30686773E+03</pdfrwt>
<pdfrwt beam="2">  1       21 0.33655587E-01 0.30686773E+03</pdfrwt>
<totfact> 0.22860950E+03</totfact>
</mgrwt>
</event>
<event>
12    1  0.2791583E-001  0.1757518E+03  0.7546771E-02  0.1172187E+00
         21   -1    0    0  502  503  0.00000000000E+00  0.00000000000E+00  0.30509748082E+03  0.30509748082E+03  0.00000000000E+00 0. -1.
         21   -1    0    0  503  504 -0.00000000000E+00 -0.00000000000E+00 -0.14416967536E+03  0.14416967536E+03  0.00000000000E+00 0. -1.
         -6    2    1    2    0  504  0.12175286410E+02  0.45125378000E+02 -0.42924948022E+02  0.18011172471E+03  0.16856199120E+03 0.  0.
        -24    2    3    3    0    0 -0.11463246788E+02 -0.37165163283E+02 -0.18984961036E+02  0.91085175789E+02  0.80146273240E+02 0.  0.
          6    2    1    2  502    0 -0.12175286410E+02 -0.45125378000E+02  0.20385275348E+03  0.26915543147E+03  0.16942303223E+03 0.  0.
         24    2    5    5    0    0  0.42501210294E+02 -0.14559320739E+02  0.17903353688E+03  0.20161369133E+03  0.81097142418E+02 0.  0.
          4    1    6    6  501    0  0.61031586850E+02 -0.83007268762E+01  0.16848760084E+03  0.17939294384E+03  0.00000000000E+00 0. -1.
         -3    1    6    6    0  501 -0.18530376556E+02 -0.62585938624E+01  0.10545936037E+02  0.22220747497E+02  0.00000000000E+00 0.  1.
          5    1    5    5  502    0 -0.54676496703E+02 -0.30566057261E+02  0.24819216603E+02  0.67541740139E+02  0.47000000000E+01 0. -1.
         13    1    4    4    0    0 -0.41990018448E+02 -0.33558297858E+02 -0.25763232079E+02  0.59607592901E+02  0.00000000000E+00 0. -1.
        -14    1    4    4    0    0  0.30526771659E+02 -0.36068654253E+01  0.67782710430E+01  0.31477582888E+02  0.00000000000E+00 0.  1.
         -5    1    3    3    0  504  0.23638533198E+02  0.82290541283E+02 -0.23939986986E+02  0.89026548923E+02  0.47000000000E+01 0.  1.
<mgrwt>
<rscale>  2 0.17554398E+03</rscale>
<asrwt>0</asrwt>
<pdfrwt beam="1">  1       21 0.46938074E-01 0.17575182E+03</pdfrwt>
<pdfrwt beam="2">  1       21 0.22179950E-01 0.17575182E+03</pdfrwt>
<totfact> 0.83151602E+04</totfact>
</mgrwt>
</event>
<event>
12    1  0.2791583E-001  0.1761179E+03  0.7546771E-02  0.1171704E+00
         21   -1    0    0  502  503  0.00000000000E+00  0.00000000000E+00  0.86690755517E+03  0.86690755517E+03  0.00000000000E+00 0.  1.
         21   -1    0    0  503  504 -0.00000000000E+00 -0.00000000000E+00 -0.62117459690E+02  0.62117459690E+02  0.00000000000E+00 0.  1.
         -6    2    1    2    0  504 -0.90143892017E+01  0.30367225267E+02  0.99742223031E+02  0.20240067857E+03  0.17324576777E+03 0.  0.
        -24    2    3    3    0    0 -0.12327311953E+02  0.24656676100E+01  0.13452568542E+03  0.15744012216E+03  0.80821964161E+02 0.  0.
          6    2    1    2  502    0  0.90143892017E+01 -0.30367225267E+02  0.70504787245E+03  0.72662433629E+03  0.17287855870E+03 0.  0.
         24    2    5    5    0    0 -0.38520939375E+02  0.30371970576E+02  0.46226313446E+03  0.47183937524E+03  0.80863286982E+02 0.  0.
          2    1    6    6  501    0  0.47822740901E+01  0.44751136995E+02  0.16225032204E+03  0.16837666528E+03  0.00000000000E+00 0. -1.
         -1    1    6    6    0  501 -0.43303213466E+02 -0.14379166419E+02  0.30001281241E+03  0.30346270996E+03  0.00000000000E+00 0.  1.
          5    1    5    5  502    0  0.47535328577E+02 -0.60739195844E+02  0.24278473800E+03  0.25478496105E+03  0.47000000000E+01 0. -1.
         13    1    4    4    0    0  0.16523628104E+02 -0.25952551268E+02  0.98655975744E+02  0.10334198930E+03  0.00000000000E+00 0. -1.
        -14    1    4    4    0    0 -0.28850940057E+02  0.28418218878E+02  0.35869709679E+02  0.54098132859E+02  0.00000000000E+00 0.  1.
         -5    1    3    3    0  504  0.33129227514E+01  0.27901557657E+02 -0.34783462392E+02  0.44960556412E+02  0.47000000000E+01 0.  1.
<mgrwt>
<rscale>  2 0.17602755E+03</rscale>
<asrwt>0</asrwt>
<pdfrwt beam="1">  1       21 0.13337038E+00 0.17611793E+03</pdfrwt>
<pdfrwt beam="2">  1       21 0.95565329E-02 0.17611793E+03</pdfrwt>
<totfact> 0.35959432E+04</totfact>
</mgrwt>
</event>
<event>
12    1  0.2791583E-001  0.2263785E+03  0.7546771E-02  0.1130998E+00
         21   -1    0    0  502  503  0.00000000000E+00  0.00000000000E+00  0.16529617061E+03  0.16529617061E+03  0.00000000000E+00 0. -1.
         21   -1    0    0  503  504 -0.00000000000E+00 -0.00000000000E+00 -0.30266439768E+03  0.30266439768E+03  0.00000000000E+00 0. -1.
         -6    2    1    2    0  504  0.11978931099E+03  0.59560400967E+02 -0.10246305906E+03  0.24848726764E+03  0.18262070888E+03 0.  0.
        -24    2    3    3    0    0  0.79660448255E+02 -0.37656733562E+02 -0.45147068092E+02  0.12861771482E+03  0.82100196164E+02 0.  0.
          6    2    1    2  502    0 -0.11978931099E+03 -0.59560400967E+02 -0.34905168014E+02  0.21947330066E+03  0.17045010577E+03 0.  0.
         24    2    5    5    0    0 -0.94878602008E+02 -0.93982190314E+02 -0.63851123667E+02  0.16784616290E+03  0.79125009907E+02 0.  0.
          2    1    6    6  501    0 -0.95476123254E+02 -0.72426694544E+02 -0.23538529359E+02  0.12212853294E+03  0.00000000000E+00 0. -1.
         -1    1    6    6    0  501  0.59752124574E+00 -0.21555495771E+02 -0.40312594307E+02  0.45717629962E+02  0.00000000000E+00 0.  1.
          5    1    5    5  502    0 -0.24910708985E+02  0.34421789348E+02  0.28945955653E+02  0.51627137754E+02  0.47000000000E+01 0. -1.
         11    1    4    4    0    0  0.12551023548E+02  0.25366702221E+02 -0.12469667471E+02  0.30927178670E+02  0.00000000000E+00 0. -1.
        -12    1    4    4    0    0  0.67109424707E+02 -0.63023435783E+02 -0.32677400622E+02  0.97690536152E+02  0.00000000000E+00 0.  1.
         -5    1    3    3    0  504  0.40128862738E+02  0.97217134529E+02 -0.57315990969E+02  0.11986955281E+03  0.47000000000E+01 0.  1.
<mgrwt>
<rscale>  2 0.22391391E+03</rscale>
<asrwt>0</asrwt>
<pdfrwt beam="1">  1       21 0.25430180E-01 0.22637854E+03</pdfrwt>
<pdfrwt beam="2">  1       21 0.46563753E-01 0.22637854E+03</pdfrwt>
<totfact> 0.63802427E+04</totfact>
</mgrwt>
</event>
<event>
12    1  0.2791583E-001  0.2007963E+03  0.7546771E-02  0.1149594E+00
         21   -1    0    0  502  503  0.00000000000E+00  0.00000000000E+00  0.61637917224E+03  0.61637917224E+03  0.00000000000E+00 0.  1.
         21   -1    0    0  503  504 -0.00000000000E+00 -0.00000000000E+00 -0.12419561305E+03  0.12419561305E+03  0.00000000000E+00 0.  1.
         -6    2    1    2    0  504 -0.27970940736E+02  0.94613808540E+02 -0.96002102437E+01  0.20102569218E+03  0.17488573009E+03 0.  0.
        -24    2    3    3    0    0 -0.64767675230E+02  0.88558802765E+01  0.18259204906E+02  0.10352359506E+03  0.78169417300E+02 0.  0.
          6    2    1    2  502    0  0.27970940736E+02 -0.94613808540E+02  0.50178376943E+03  0.53954909311E+03  0.17202362139E+03 0.  0.
         24    2    5    5    0    0  0.20441084023E+02 -0.10155009968E+03  0.21004329698E+03  0.24759121234E+03  0.80330325283E+02 0.  0.
          2    1    6    6  501    0  0.50592809610E+02 -0.65628128751E+02  0.11669301728E+03  0.14312212949E+03  0.00000000000E+00 0. -1.
         -1    1    6    6    0  501 -0.30151725587E+02 -0.35921970927E+02  0.93350279703E+02  0.10446908285E+03  0.00000000000E+00 0.  1.
          5    1    5    5  502    0  0.75298567124E+01  0.69362911378E+01  0.29174047245E+03  0.29195788077E+03  0.47000000000E+01 0. -1.
         11    1    4    4    0    0 -0.13031676502E+02  0.28780485458E+01 -0.29803367799E+02  0.32654991779E+02  0.00000000000E+00 0. -1.
        -12    1    4    4    0    0 -0.51735998728E+02  0.59778317307E+01  0.48062572705E+02  0.70868603286E+02  0.00000000000E+00 0.  1.
         -5    1    3    3    0  504  0.36796734494E+02  0.85757928264E+02 -0.27859415150E+02  0.97502097116E+02  0.47000000000E+01 0.  1.
<mgrwt>
<rscale>  2 0.20017147E+03</rscale>
<asrwt>0</asrwt>
<pdfrwt beam="1">  1       21 0.94827563E-01 0.20079633E+03</pdfrwt>
<pdfrwt beam="2">  1       21 0.19107018E-01 0.20079633E+03</pdfrwt>
<totfact> 0.23268287E+04</totfact>
</mgrwt>
</event>
<event>
12    1  0.2791583E-001  0.1906596E+03  0.7546771E-02  0.1158703E+00
         21   -1    0    0  502  503  0.00000000000E+00  0.00000000000E+00  0.70399094436E+02  0.70399094436E+02  0.00000000000E+00 0.  1.
         21   -1    0    0  503  504 -0.00000000000E+00 -0.00000000000E+00 -0.68663016523E+03  0.68663016523E+03  0.00000000000E+00 0.  1.
         -6    2    1    2    0  504  0.73448608153E+02 -0.32958188973E+02 -0.49979937124E+03  0.53362960404E+03  0.16876078500E+03 0.  0.
        -24    2    3    3    0    0  0.64042208296E+02  0.31047608648E+02 -0.40254415149E+03  0.41672840534E+03  0.80965495595E+02 0.  0.
          6    2    1    2  502    0 -0.73448608153E+02  0.32958188973E+02 -0.11643169955E+03  0.22339965562E+03  0.17282975789E+03 0.  0.
         24    2    5    5    0    0 -0.24836941483E+01  0.22375973400E+02  0.18695551884E+01  0.84960935683E+02  0.81902456821E+02 0.  0.
          4    1    6    6  501    0  0.27666571624E+02 -0.10512006222E+02  0.21129322461E+02  0.36364676926E+02  0.00000000000E+00 0. -1.
         -3    1    6    6    0  501 -0.30150265773E+02  0.32887979622E+02 -0.19259767272E+02  0.48596258757E+02  0.00000000000E+00 0.  1.
          5    1    5    5  502    0 -0.70964914005E+02  0.10582215573E+02 -0.11830125474E+03  0.13843871994E+03  0.47000000000E+01 0. -1.
         13    1    4    4    0    0 -0.14126435619E+02  0.12792914314E+02 -0.29320937784E+02  0.34970447988E+02  0.00000000000E+00 0. -1.
        -14    1    4    4    0    0  0.78168643915E+02  0.18254694333E+02 -0.37322321370E+03  0.38175795735E+03  0.00000000000E+00 0.  1.
         -5    1    3    3    0  504  0.94063998574E+01 -0.64005797621E+02 -0.97255219758E+02  0.11690119870E+03  0.47000000000E+01 0.  1.
<mgrwt>
<rscale>  2 0.18973268E+03</rscale>
<asrwt>0</asrwt>
<pdfrwt beam="1">  1       21 0.10830630E-01 0.19065955E+03</pdfrwt>
<pdfrwt beam="2">  1       21 0.10563541E+00 0.19065955E+03</pdfrwt>
<totfact> 0.50782512E+04</totfact>
</mgrwt>
</event>
<event>
12    1  0.2791583E-001  0.2627739E+03  0.7546771E-02  0.1105966E+00
         21   -1    0    0  502  503  0.00000000000E+00  0.00000000000E+00  0.52048090189E+02  0.52048090189E+02  0.00000000000E+00 0. -1.
         21   -1    0    0  503  504 -0.00000000000E+00 -0.00000000000E+00 -0.19741579162E+04  0.19741579162E+04  0.00000000000E+00 0.  1.
         -6    2    1    2    0  504  0.56501718828E+02 -0.18897088305E+03 -0.37758533294E+03  0.46002258688E+03  0.17363080924E+03 0.  0.
        -24    2    3    3    0    0  0.87162856741E+02 -0.19241330212E+03 -0.30394295027E+03  0.38003980028E+03  0.86189850620E+02 0.  0.
          6    2    1    2  502    0 -0.56501718828E+02  0.18897088305E+03 -0.15445244931E+04  0.15661834195E+04  0.16873694018E+03 0.  0.
         24    2    5    5    0    0 -0.42742528236E+01  0.13741273122E+03 -0.13233890312E+04  0.13331406472E+04  0.83695456282E+02 0.  0.
          2    1    6    6  501    0 -0.31506671371E+02  0.39482536325E+02 -0.66900720212E+03  0.67091145280E+03  0.00000000000E+00 0. -1.
         -1    1    6    6    0  501  0.27232418547E+02  0.97930194891E+02 -0.65438182903E+03  0.66222919436E+03  0.00000000000E+00 0.  1.
          5    1    5    5  502    0 -0.52227466005E+02  0.51558151835E+02 -0.22113546192E+03  0.23304277235E+03  0.47000000000E+01 0. -1.
         11    1    4    4    0    0  0.90477158248E+02 -0.18559956717E+03 -0.24408522713E+03  0.31970441598E+03  0.00000000000E+00 0. -1.
        -12    1    4    4    0    0 -0.33143015063E+01 -0.68137349513E+01 -0.59857723138E+02  0.60335384292E+02  0.00000000000E+00 0.  1.
         -5    1    3    3    0  504 -0.30661137913E+02  0.34424190665E+01 -0.73642382675E+02  0.79982786606E+02  0.47000000000E+01 0.  1.
<mgrwt>
<rscale>  2 0.26196823E+03</rscale>
<asrwt>0</asrwt>
<pdfrwt beam="1">  1       21 0.80073982E-02 0.26277385E+03</pdfrwt>
<pdfrwt beam="2">  1       21 0.30371661E+00 0.26277385E+03</pdfrwt>
<totfact> 0.36213369E+03</totfact>
</mgrwt>
</event>
<event>
12    1  0.2791583E-001  0.1762552E+03  0.7546771E-02  0.1171824E+00
         21   -1    0    0  502  503  0.00000000000E+00  0.00000000000E+00  0.26815664362E+03  0.26815664362E+03  0.00000000000E+00 0.  1.
         21   -1    0    0  503  504 -0.00000000000E+00 -0.00000000000E+00 -0.57311787681E+03  0.57311787681E+03  0.00000000000E+00 0.  1.
         -6    2    1    2    0  504  0.41547145375E+01  0.30542638696E+02 -0.52845914222E+03  0.55663930708E+03  0.17212826251E+03 0.  0.
        -24    2    3    3    0    0  0.63410627854E+01 -0.14440100203E+02 -0.11581173494E+03  0.14151498876E+03  0.79783510354E+02 0.  0.
          6    2    1    2  502    0 -0.41547145375E+01 -0.30542638696E+02  0.22349790903E+03  0.28463521335E+03  0.17353897230E+03 0.  0.
         24    2    5    5    0    0 -0.10491502416E+02  0.19433020249E+02  0.21663204401E+03  0.23357689894E+03  0.84504504794E+02 0.  0.
          2    1    6    6  501    0 -0.83183024582E+01  0.46472662269E+02  0.69845279680E+02  0.84304600039E+02  0.00000000000E+00 0. -1.
         -1    1    6    6    0  501 -0.21731999581E+01 -0.27039642020E+02  0.14678676433E+03  0.14927229891E+03  0.00000000000E+00 0.  1.
          5    1    5    5  502    0  0.63367878787E+01 -0.49975658945E+02  0.68658650228E+01  0.51058314407E+02  0.47000000000E+01 0. -1.
         13    1    4    4    0    0 -0.10038259411E+02 -0.10711847218E+02 -0.12254230833E+03  0.12341850612E+03  0.00000000000E+00 0. -1.
        -14    1    4    4    0    0  0.16379322196E+02 -0.37282529857E+01  0.67305733888E+01  0.18096482644E+02  0.00000000000E+00 0.  1.
         -5    1    3    3    0  504 -0.21863482479E+01  0.44982738899E+02 -0.41264740728E+03  0.41512431831E+03  0.47000000000E+01 0.  1.
<mgrwt>
<rscale>  2 0.17590695E+03</rscale>
<asrwt>0</asrwt>
<pdfrwt beam="1">  1       21 0.41254869E-01 0.17625518E+03</pdfrwt>
<pdfrwt beam="2">  1       21 0.88171980E-01 0.17625518E+03</pdfrwt>
<totfact> 0.63125810E+03</totfact>
</mgrwt>
</event>
<event>
12    1  0.2791583E-001  0.1922644E+03  0.7546771E-02  0.1156700E+00
         21   -1    0    0  502  503  0.00000000000E+00  0.00000000000E+00  0.18062472179E+04  0.18062472179E+04  0.00000000000E+00 0. -1.
         21   -1    0    0  503  504 -0.00000000000E+00 -0.00000000000E+00 -0.53114761740E+02  0.53114761740E+02  0.00000000000E+00 0. -1.
         -6    2    1    2    0  504 -0.21382225707E+02 -0.80251107518E+02  0.14522480357E+03  0.24000018336E+03  0.17208255172E+03 0.  0.
        -24    2    3    3    0    0 -0.38433216506E+02  0.35158056041E+01  0.27466610089E+02  0.94409269657E+02  0.81665307857E+02 0.  0.
          6    2    1    2  502    0  0.21382225707E+02  0.80251107518E+02  0.16079076525E+04  0.16193617962E+04  0.17340175362E+03 0.  0.
         24    2    5    5    0    0  0.21314363527E+02  0.73855248952E+02  0.46504973142E+03  0.47647631225E+03  0.69638520638E+02 0.  0.
          4    1    6    6  501    0  0.30800255196E+02  0.62957794244E+02  0.45068657559E+03  0.45610385769E+03  0.00000000000E+00 0. -1.
         -3    1    6    6    0  501 -0.94858916684E+01  0.10897454708E+02  0.14363155824E+02  0.20372454567E+02  0.00000000000E+00 0.  1.
          5    1    5    5  502    0  0.67862179273E-01  0.63958585661E+01  0.11428579211E+04  0.11428854840E+04  0.47000000000E+01 0. -1.
         13    1    4    4    0    0 -0.54817109255E+02 -0.22401785992E+02  0.22497025220E+02  0.63347230614E+02  0.00000000000E+00 0. -1.
        -14    1    4    4    0    0  0.16383892749E+02  0.25917591596E+02  0.49695848689E+01  0.31062039043E+02  0.00000000000E+00 0.  1.
         -5    1    3    3    0  504  0.17050990800E+02 -0.83766913122E+02  0.11775819348E+03  0.14559091371E+03  0.47000000000E+01 0.  1.
<mgrwt>
<rscale>  2 0.19196650E+03</rscale>
<asrwt>0</asrwt>
<pdfrwt beam="1">  1       21 0.27788414E+00 0.19226442E+03</pdfrwt>
<pdfrwt beam="2">  1       21 0.81715032E-02 0.19226442E+03</pdfrwt>
<totfact> 0.52954319E+03</totfact>
</mgrwt>
</event>
<event>
12    1  0.2791583E-001  0.2007913E+03  0.7546771E-02  0.1149953E+00
         21   -1    0    0  502  503  0.00000000000E+00  0.00000000000E+00  0.51623946780E+03  0.51623946780E+03  0.00000000000E+00 0. -1.
         21   -1    0    0  503  504 -0.00000000000E+00 -0.00000000000E+00 -0.94664516992E+02  0.94664516992E+02  0.00000000000E+00 0.  1.
         -6    2    1    2    0  504  0.10200139268E+03 -0.23090573009E+02  0.78742170675E+02  0.21567912676E+03  0.17140506879E+03 0.  0.
        -24    2    3    3    0    0  0.12655966349E+03 -0.19397777192E+02  0.19721076072E+02  0.15147379198E+03  0.78496921169E+02 0.  0.
          6    2    1    2  502    0 -0.10200139268E+03  0.23090573009E+02  0.34283278013E+03  0.39522485803E+03  0.16652601780E+03 0.  0.
         24    2    5    5    0    0  0.32262946746E+01  0.91123771542E+01  0.86298378000E+02  0.11755554820E+03  0.79236686406E+02 0.  0.
          4    1    6    6  501    0 -0.20805917205E+02  0.23473332920E+01 -0.61282756892E+01  0.21816322496E+02  0.00000000000E+00 0. -1.
         -3    1    6    6    0  501  0.24032211880E+02  0.67650438623E+01  0.92426653689E+02  0.95739225704E+02  0.00000000000E+00 0.  1.
          5    1    5    5  502    0 -0.10522768735E+03  0.13978195855E+02  0.25653440213E+03  0.27766930983E+03  0.47000000000E+01 0. -1.
         13    1    4    4    0    0  0.89731275239E+02 -0.43696853941E+02  0.33455304755E+02  0.10526335648E+03  0.00000000000E+00 0. -1.
        -14    1    4    4    0    0  0.36828388248E+02  0.24299076749E+02 -0.13734228683E+02  0.46210435503E+02  0.00000000000E+00 0.  1.
         -5    1    3    3    0  504 -0.24558270810E+02 -0.36927958173E+01  0.59021094603E+02  0.64205334781E+02  0.47000000000E+01 0.  1.
<mgrwt>
<rscale>  2 0.19974605E+03</rscale>
<asrwt>0</asrwt>
<pdfrwt beam="1">  1       21 0.79421455E-01 0.20079133E+03</pdfrwt>
<pdfrwt beam="2">  1       21 0.14563772E-01 0.20079133E+03</pdfrwt>
<totfact> 0.57641776E+04</totfact>
</mgrwt>
</event>
<event>
12    1  0.2791583E-001  0.3886644E+03  0.7546771E-02  0.1047850E+00
         21   -1    0    0  502  503  0.00000000000E+00  0.00000000000E+00  0.70107111562E+03  0.70107111562E+03  0.00000000000E+00 0.  1.
         21   -1    0    0  503  504 -0.00000000000E+00 -0.00000000000E+00 -0.21502909833E+03  0.21502909833E+03  0.00000000000E+00 0. -1.
         -6    2    1    2    0  504 -0.30512792988E+02 -0.34616551322E+03  0.24600053100E+03  0.45997418631E+03  0.17406434941E+03 0.  0.
        -24    2    3    3    0    0 -0.54579994419E+02 -0.23415583061E+03  0.91501934260E+02  0.26757536724E+03  0.73593779500E+02 0.  0.
          6    2    1    2  502    0  0.30512792988E+02  0.34616551322E+03  0.24004148630E+03  0.45612602764E+03  0.17224820715E+03 0.  0.
         24    2    5    5    0    0  0.24581181799E+02  0.11358133532E+03  0.15146636192E+03  0.20713159702E+03  0.80352258577E+02 0.  0.
          2    1    6    6  501    0 -0.91012376884E+01 -0.95838283781E+01  0.18990228148E+02  0.23136790161E+02  0.00000000000E+00 0. -1.
         -1    1    6    6    0  501  0.33682419487E+02  0.12316516370E+03  0.13247613377E+03  0.18399480686E+03  0.00000000000E+00 0.  1.
          5    1    5    5  502    0  0.59316111895E+01  0.23258417790E+03  0.88575124377E+02  0.24899443062E+03  0.47000000000E+01 0. -1.
         11    1    4    4    0    0 -0.18516263538E+02 -0.46774978759E+01  0.83954511114E+01  0.20861797649E+02  0.00000000000E+00 0. -1.
        -12    1    4    4    0    0 -0.36063730882E+02 -0.22947833273E+03  0.83106483149E+02  0.24671356959E+03  0.00000000000E+00 0.  1.
         -5    1    3    3    0  504  0.24067201431E+02 -0.11200968262E+03  0.15449859674E+03  0.19239881907E+03  0.47000000000E+01 0.  1.
<mgrwt>
<rscale>  2 0.38846172E+03</rscale>
<asrwt>0</asrwt>
<pdfrwt beam="1">  1       21 0.10785709E+00 0.38866437E+03</pdfrwt>
<pdfrwt beam="2">  1       21 0.33081400E-01 0.38866437E+03</pdfrwt>
<totfact> 0.54103542E+03</totfact>
</mgrwt>
</event>
<event>
12    1  0.2791583E-001  0.2887566E+03  0.7546771E-02  0.1091112E+00
         21   -1    0    0  502  503  0.00000000000E+00  0.00000000000E+00  0.91001972845E+02  0.91001972845E+02  0.00000000000E+00 0.  1.
         21   -1    0    0  503  504 -0.00000000000E+00 -0.00000000000E+00 -0.91395126342E+03  0.91395126342E+03  0.00000000000E+00 0.  1.
         -6    2    1    2    0  504  0.12046721076E+03 -0.19652230699E+03 -0.40019240243E+03  0.49299255333E+03  0.17249444241E+03 0.  0.
        -24    2    3    3    0    0  0.11902736758E+03 -0.81188312324E+02 -0.28937315591E+03  0.33297068334E+03  0.79834806421E+02 0.  0.
          6    2    1    2  502    0 -0.12046721076E+03  0.19652230699E+03 -0.42275688815E+03  0.51196068294E+03  0.17391661331E+03 0.  0.
         24    2    5    5    0    0 -0.10593779740E+03  0.77461251284E+02 -0.15680843052E+03  0.22017769688E+03  0.81647240949E+02 0.  0.
          2    1    6    6  501    0 -0.97898382193E+02  0.43743990792E+02 -0.15074167738E+03  0.18498833279E+03  0.00000000000E+00 0. -1.
         -1    1    6    6    0  501 -0.80394152030E+01  0.33717260493E+02 -0.60667531371E+01  0.35189364097E+02  0.00000000000E+00 0.  1.
          5    1    5    5  502    0 -0.14529413368E+02  0.11906105570E+03 -0.26594845763E+03  0.29178298606E+03  0.47000000000E+01 0. -1.
         11    1    4    4    0    0  0.10502422682E+01  0.12367312421E+02 -0.11476511898E+02  0.16904548224E+02  0.00000000000E+00 0. -1.
        -12    1    4    4    0    0  0.11797712531E+03 -0.93555624745E+02 -0.27789664401E+03  0.31606613512E+03  0.00000000000E+00 0.  1.
         -5    1    3    3    0  504  0.14398431844E+01 -0.11533399466E+03 -0.11081924652E+03  0.16002186998E+03  0.47000000000E+01 0.  1.
<mgrwt>
<rscale>  2 0.28854275E+03</rscale>
<asrwt>0</asrwt>
<pdfrwt beam="1">  1       21 0.14000303E-01 0.28875657E+03</pdfrwt>
<pdfrwt beam="2">  1       21 0.14060789E+00 0.28875657E+03</pdfrwt>
<totfact> 0.14875506E+04</totfact>
</mgrwt>
</event>
<event>
12    1  0.2791583E-001  0.1989836E+03  0.7546771E-02  0.1150887E+00
         21   -1    0    0  502  503  0.00000000000E+00  0.00000000000E+00  0.22479175786E+03  0.22479175786E+03  0.00000000000E+00 0. -1.
         21   -1    0    0  503  504 -0.00000000000E+00 -0.00000000000E+00 -0.23427402532E+03  0.23427402532E+03  0.00000000000E+00 0.  1.
         -6    2    1    2    0  504 -0.41196819158E+02 -0.88615685595E+02  0.11077772956E+03  0.22656428153E+03  0.17178402329E+03 0.  0.
        -24    2    3    3    0    0  0.15297654505E+02 -0.13646322273E+02  0.10988401497E+03  0.13257002789E+03  0.71274646300E+02 0.  0.
          6    2    1    2  502    0  0.41196819158E+02  0.88615685595E+02 -0.12025999702E+03  0.23250150165E+03  0.17333367747E+03 0.  0.
         24    2    5    5    0    0  0.75881642364E+02  0.10950223850E+03 -0.78186655774E+02  0.17392214439E+03  0.79918679203E+02 0.  0.
          2    1    6    6  501    0  0.82950471963E+02  0.53771752910E+02 -0.44399892369E+02  0.10836758119E+03  0.00000000000E+00 0. -1.
         -1    1    6    6    0  501 -0.70688295997E+01  0.55730485590E+02 -0.33786763405E+02  0.65554563208E+02  0.00000000000E+00 0.  1.
          5    1    5    5  502    0 -0.34684823206E+02 -0.20886552905E+02 -0.42073341241E+02  0.58579357254E+02  0.47000000000E+01 0. -1.
         11    1    4    4    0    0 -0.20677283166E+02  0.13349373376E+02  0.62824347933E+02  0.67473361424E+02  0.00000000000E+00 0. -1.
        -12    1    4    4    0    0  0.35974937671E+02 -0.26995695648E+02  0.47059667034E+02  0.65096666469E+02  0.00000000000E+00 0.  1.
         -5    1    3    3    0  504 -0.56494473663E+02 -0.74969363322E+02  0.89371459396E+00  0.93994253639E+02  0.47000000000E+01 0.  1.
<mgrwt>
<rscale>  2 0.19864565E+03</rscale>
<asrwt>0</asrwt>
<pdfrwt beam="1">  1       21 0.34583347E-01 0.19898362E+03</pdfrwt>
<pdfrwt beam="2">  1       21 0.36042158E-01 0.19898362E+03</pdfrwt>
<totfact> 0.59645942E+04</totfact>
</mgrwt>
</event>
<event>
12    1  0.2791583E-001  0.1762105E+03  0.7546771E-02  0.1171840E+00
         21   -1    0    0  502  503  0.00000000000E+00  0.00000000000E+00  0.13547662045E+02  0.13547662045E+02  0.00000000000E+00 0.  1.
         21   -1    0    0  503  504 -0.00000000000E+00 -0.00000000000E+00 -0.22812569114E+04  0.22812569114E+04  0.00000000000E+00 0.  1.
         -6    2    1    2    0  504 -0.27645711567E+02  0.22882707099E+02 -0.11961920500E+04  0.12091011352E+04  0.17251733488E+03 0.  0.
        -24    2    3    3    0    0 -0.50655187837E+02 -0.40510704600E+02 -0.86039853742E+03  0.86657006539E+03  0.80317929480E+02 0.  0.
          6    2    1    2  502    0  0.27645711567E+02 -0.22882707099E+02 -0.10715171993E+04  0.10857034383E+04  0.17121607345E+03 0.  0.
         24    2    5    5    0    0  0.50919984977E+02  0.27297947567E+02 -0.39866050931E+03  0.41056048661E+03  0.79320165581E+02 0.  0.
          4    1    6    6  501    0 -0.19587403298E+02  0.18718942408E+02 -0.11272646891E+03  0.11593671534E+03  0.00000000000E+00 0. -1.
         -3    1    6    6    0  501  0.70507388275E+02  0.85790051586E+01 -0.28593404040E+03  0.29462377126E+03  0.00000000000E+00 0.  1.
          5    1    5    5  502    0 -0.23274273410E+02 -0.50180654666E+02 -0.67285669002E+03  0.67514295169E+03  0.47000000000E+01 0. -1.
         11    1    4    4    0    0  0.20354355988E+01 -0.42171352173E+02 -0.55931559559E+03  0.56090685627E+03  0.00000000000E+00 0. -1.
        -12    1    4    4    0    0 -0.52690623436E+02  0.16606475736E+01 -0.30108294184E+03  0.30566320913E+03  0.00000000000E+00 0.  1.
         -5    1    3    3    0  504  0.23009476271E+02  0.63393411699E+02 -0.33579351260E+03  0.34253106976E+03  0.47000000000E+01 0.  1.
<mgrwt>
<rscale>  2 0.17589117E+03</rscale>
<asrwt>0</asrwt>
<pdfrwt beam="1">  1       21 0.20842565E-02 0.17621048E+03</pdfrwt>
<pdfrwt beam="2">  1       21 0.35096247E+00 0.17621048E+03</pdfrwt>
<totfact> 0.20248244E+04</totfact>
</mgrwt>
</event>
<event>
12    1  0.2791583E-001  0.2773645E+03  0.7546771E-02  0.1097874E+00
         21   -1    0    0  502  503  0.00000000000E+00  0.00000000000E+00  0.16248040508E+04  0.16248040508E+04  0.00000000000E+00 0.  1.
         21   -1    0    0  503  504 -0.00000000000E+00 -0.00000000000E+00 -0.46830993310E+02  0.46830993310E+02  0.00000000000E+00 0. -1.
         -6    2    1    2    0  504 -0.20134420923E+03  0.82055531872E+02  0.70626840915E+03  0.75686728722E+03  0.16358613568E+03 0.  0.
        -24    2    3    3    0    0 -0.11504090497E+03 -0.13330573237E+02  0.42464383110E+03  0.44722029088E+03  0.79192747684E+02 0.  0.
          6    2    1    2  502    0  0.20134420923E+03 -0.82055531872E+02  0.87170464830E+03  0.91476775686E+03  0.17221630067E+03 0.  0.
         24    2    5    5    0    0  0.97307016925E+02 -0.97807059978E+02  0.64436235414E+03  0.66421146232E+03  0.83301540884E+02 0.  0.
          4    1    6    6  501    0  0.23458545017E+02 -0.26068198220E+02  0.36145515136E+03  0.36315242081E+03  0.00000000000E+00 0. -1.
         -3    1    6    6    0  501  0.73848471908E+02 -0.71738861758E+02  0.28290720278E+03  0.30105904151E+03  0.00000000000E+00 0.  1.
          5    1    5    5  502    0  0.10403719231E+03  0.15751528106E+02  0.22734229416E+03  0.25055629455E+03  0.47000000000E+01 0. -1.
         11    1    4    4    0    0 -0.90249292297E+02 -0.27550418760E+02  0.20439682818E+03  0.22512668368E+03  0.00000000000E+00 0. -1.
        -12    1    4    4    0    0 -0.24791612676E+02  0.14219845523E+02  0.22024700292E+03  0.22209360720E+03  0.00000000000E+00 0.  1.
         -5    1    3    3    0  504 -0.86303304262E+02  0.95386105109E+02  0.28162457805E+03  0.30964699633E+03  0.47000000000E+01 0.  1.
<mgrwt>
<rscale>  2 0.27603638E+03</rscale>
<asrwt>0</asrwt>
<pdfrwt beam="1">  1       21 0.24996981E+00 0.27736448E+03</pdfrwt>
<pdfrwt beam="2">  1       21 0.72047694E-02 0.27736448E+03</pdfrwt>
<totfact> 0.89343974E+03</totfact>
</mgrwt>
</event>
<event>
12    1  0.2791583E-001  0.1725849E+03  0.7546771E-02  0.1175752E+00
         21   -1    0    0  502  503  0.00000000000E+00  0.00000000000E+00  0.53622402894E+02  0.53622402894E+02  0.00000000000E+00 0.  1.
         21   -1    0    0  503  504 -0.00000000000E+00 -0.00000000000E+00 -0.70330777812E+03  0.70330777812E+03  0.00000000000E+00 0.  1.
         -6    2    1    2    0  504 -0.25494271644E+02 -0.63552946556E+01 -0.50414830230E+03  0.53287058474E+03  0.17057315646E+03 0.  0.
        -24    2    3    3    0    0  0.24691185628E+02 -0.13172872203E+02 -0.45126092866E+03  0.45949331458E+03  0.81942059986E+02 0.  0.
          6    2    1    2  502    0  0.25494271644E+02  0.63552946556E+01 -0.14553707293E+03  0.22405959628E+03  0.16831908814E+03 0.  0.
         24    2    5    5    0    0  0.34608529942E+02 -0.41811645763E+02 -0.36834344393E+02  0.10472185270E+03  0.81632918843E+02 0.  0.
          2    1    6    6  501    0  0.27801757731E+02 -0.56980235690E+02 -0.52167922266E+02  0.82104671644E+02  0.00000000000E+00 0. -1.
         -1    1    6    6    0  501  0.68067722102E+01  0.15168589927E+02  0.15333577873E+02  0.22617181051E+02  0.00000000000E+00 0.  1.
          5    1    5    5  502    0 -0.91142582971E+01  0.48166940419E+02 -0.10870272853E+03  0.11933774358E+03  0.47000000000E+01 0. -1.
         13    1    4    4    0    0  0.20240799745E+02  0.32687523655E+02 -0.25592418061E+03  0.25879596287E+03  0.00000000000E+00 0. -1.
        -14    1    4    4    0    0  0.44503858838E+01 -0.45860395858E+02 -0.19533674805E+03  0.20069735171E+03  0.00000000000E+00 0.  1.
         -5    1    3    3    0  504 -0.50185457273E+02  0.68175775477E+01 -0.52887373640E+02  0.73377270158E+02  0.47000000000E+01 0.  1.
<mgrwt>
<rscale>  2 0.17202533E+03</rscale>
<asrwt>0</asrwt>
<pdfrwt beam="1">  1       21 0.82496011E-02 0.17258490E+03</pdfrwt>
<pdfrwt beam="2">  1       21 0.10820119E+00 0.17258490E+03</pdfrwt>
<totfact> 0.78022375E+04</totfact>
</mgrwt>
</event>
<event>
12    1  0.2791583E-001  0.1955544E+03  0.7546771E-02  0.1153652E+00
         21   -1    0    0  502  503  0.00000000000E+00  0.00000000000E+00  0.99437773764E+03  0.99437773764E+03  0.00000000000E+00 0. -1.
         21   -1    0    0  503  504 -0.00000000000E+00 -0.00000000000E+00 -0.84647731656E+02  0.84647731656E+02  0.00000000000E+00 0.  1.
         -6    2    1    2    0  504 -0.14205758733E+02 -0.89486751731E+02  0.56171645557E+02  0.20346197801E+03  0.17329697174E+03 0.  0.
        -24    2    3    3    0    0  0.16013931220E+02 -0.40128492138E+02 -0.30832867708E+02  0.98861104308E+02  0.83403299333E+02 0.  0.
          6    2    1    2  502    0  0.14205758733E+02  0.89486751731E+02  0.85355836042E+03  0.87556349128E+03  0.17274220764E+03 0.  0.
         24    2    5    5    0    0  0.71356065161E+02  0.66144245658E+02  0.44901301296E+03  0.46630799862E+03  0.79772893305E+02 0.  0.
          2    1    6    6  501    0  0.53589821929E+02  0.44794894069E+02  0.42137737134E+03  0.42712684372E+03  0.00000000000E+00 0. -1.
         -1    1    6    6    0  501  0.17766243232E+02  0.21349351589E+02  0.27635641614E+02  0.39181154900E+02  0.00000000000E+00 0.  1.
          5    1    5    5  502    0 -0.57150306428E+02  0.23342506073E+02  0.40454534747E+03  0.40925549266E+03  0.47000000000E+01 0. -1.
         11    1    4    4    0    0  0.48212516184E+02 -0.28179954273E+02 -0.53583499232E+01  0.56100520973E+02  0.00000000000E+00 0. -1.
        -12    1    4    4    0    0 -0.32198584964E+02 -0.11948537865E+02 -0.25474517784E+02  0.42760583335E+02  0.00000000000E+00 0.  1.
         -5    1    3    3    0  504 -0.30219689952E+02 -0.49358259593E+02  0.87004513265E+02  0.10460087370E+03  0.47000000000E+01 0.  1.
<mgrwt>
<rscale>  2 0.19543142E+03</rscale>
<asrwt>0</asrwt>
<pdfrwt beam="1">  1       21 0.15298118E+00 0.19555440E+03</pdfrwt>
<pdfrwt beam="2">  1       21 0.13022729E-01 0.19555440E+03</pdfrwt>
<totfact> 0.14349398E+04</totfact>
</mgrwt>
</event>
<event>
12    1  0.2791583E-001  0.1792980E+03  0.7546771E-02  0.1168611E+00
         21   -1    0    0  502  503  0.00000000000E+00  0.00000000000E+00  0.10969917084E+03  0.10969917084E+03  0.00000000000E+00 0. -1.
         21   -1    0    0  503  504 -0.00000000000E+00 -0.00000000000E+00 -0.32113704356E+03  0.32113704356E+03  0.00000000000E+00 0. -1.
         -6    2    1    2    0  504  0.18030647440E+02  0.43146111159E+02 -0.17023863997E+03  0.24686572424E+03  0.17255376006E+03 0.  0.
        -24    2    3    3    0    0 -0.54376768905E+01  0.26439153502E+02 -0.19314310463E+03  0.20976330946E+03  0.77251472246E+02 0.  0.
          6    2    1    2  502    0 -0.18030647440E+02 -0.43146111159E+02 -0.41199232748E+02  0.18397049016E+03  0.17309267263E+03 0.  0.
         24    2    5    5    0    0 -0.61647944606E+02  0.13582690759E+02 -0.45153956036E+02  0.11214879835E+03  0.80953781030E+02 0.  0.
          2    1    6    6  501    0 -0.77043244704E+02 -0.64038932480E+01 -0.31685590433E+02  0.83550272557E+02  0.00000000000E+00 0. -1.
         -1    1    6    6    0  501  0.15395300099E+02  0.19986584007E+02 -0.13468365603E+02  0.28598525791E+02  0.00000000000E+00 0.  1.
          5    1    5    5  502    0  0.43617297165E+02 -0.56728801918E+02  0.39547232879E+01  0.71821691816E+02  0.47000000000E+01 0. -1.
         11    1    4    4    0    0  0.23231107555E+02  0.42701970360E+02 -0.12316891646E+03  0.13241497126E+03  0.00000000000E+00 0. -1.
        -12    1    4    4    0    0 -0.28668784446E+02 -0.16262816858E+02 -0.69974188165E+02  0.77348338205E+02  0.00000000000E+00 0.  1.
         -5    1    3    3    0  504  0.23468324331E+02  0.16706957657E+02  0.22904464655E+02  0.37102414776E+02  0.47000000000E+01 0.  1.
<mgrwt>
<rscale>  2 0.17916778E+03</rscale>
<asrwt>0</asrwt>
<pdfrwt beam="1">  1       21 0.16876796E-01 0.17929798E+03</pdfrwt>
<pdfrwt beam="2">  1       21 0.49405698E-01 0.17929798E+03</pdfrwt>
<totfact> 0.12409328E+05</totfact>
</mgrwt>
</event>
<event>
12    1  0.2791583E-001  0.1804332E+03  0.7546771E-02  0.1172130E+00
         21   -1    0    0  502  503  0.00000000000E+00  0.00000000000E+00  0.70018414075E+03  0.70018414075E+03  0.00000000000E+00 0.  1.
         21   -1    0    0  503  504 -0.00000000000E+00 -0.00000000000E+00 -0.54593586583E+02  0.54593586583E+02  0.00000000000E+00 0.  1.
         -6    2    1    2    0  504 -0.39938203020E+02 -0.29005800035E+02  0.15397833784E+03  0.23720343021E+03  0.17355040271E+03 0.  0.
        -24    2    3    3    0    0 -0.13307798592E+01  0.57272188956E+00  0.50611640620E+01  0.80474885488E+02  0.80302508225E+02 0.  0.
          6    2    1    2  502    0  0.39938203020E+02  0.29005800035E+02  0.49161221633E+03  0.51757429713E+03  0.15415636643E+03 0.  0.
         24    2    5    5    0    0  0.17440729550E+02  0.26977432485E+02  0.12706332197E+03  0.15229599642E+03  0.77569464525E+02 0.  0.
          2    1    6    6  501    0  0.31474104172E+01  0.35654002621E+02  0.14697262891E+02  0.38692681889E+02  0.00000000000E+00 0. -1.
         -1    1    6    6    0  501  0.14293319133E+02 -0.86765701361E+01  0.11236605907E+03  0.11360331453E+03  0.00000000000E+00 0.  1.
          5    1    5    5  502    0  0.22497473470E+02  0.20283675497E+01  0.36454889436E+03  0.36527830071E+03  0.47000000000E+01 0. -1.
         11    1    4    4    0    0 -0.19115947303E+02 -0.72701727744E+01  0.37467588115E+02  0.42686004880E+02  0.00000000000E+00 0. -1.
        -12    1    4    4    0    0  0.17785167444E+02  0.78428946639E+01 -0.32406424053E+02  0.37788880608E+02  0.00000000000E+00 0.  1.
         -5    1    3    3    0  504 -0.38607423161E+02 -0.29578521924E+02  0.14891717378E+03  0.15672854472E+03  0.47000000000E+01 0.  1.
<mgrwt>
<rscale>  2 0.17560068E+03</rscale>
<asrwt>0</asrwt>
<pdfrwt beam="1">  1       21 0.10772063E+00 0.18043320E+03</pdfrwt>
<pdfrwt beam="2">  1       21 0.83990138E-02 0.18043320E+03</pdfrwt>
<totfact> 0.76154459E+04</totfact>
</mgrwt>
</event>
<event>
12    1  0.2791583E-001  0.2167804E+03  0.7546771E-02  0.1136404E+00
         21   -1    0    0  502  503  0.00000000000E+00  0.00000000000E+00  0.47356704192E+03  0.47356704192E+03  0.00000000000E+00 0.  1.
         21   -1    0    0  503  504 -0.00000000000E+00 -0.00000000000E+00 -0.10880015118E+03  0.10880015118E+03  0.00000000000E+00 0.  1.
         -6    2    1    2    0  504  0.70454965992E+02  0.10924559908E+03  0.94788506753E+02  0.23612730792E+03  0.17283732635E+03 0.  0.
        -24    2    3    3    0    0  0.13366411898E+02  0.98383319504E+01 -0.69070300661E+01  0.82813968722E+02  0.80839301138E+02 0.  0.
          6    2    1    2  502    0 -0.70454965992E+02 -0.10924559908E+03  0.26997838398E+03  0.34623988519E+03  0.17347975998E+03 0.  0.
         24    2    5    5    0    0 -0.77759827609E+01 -0.88245773655E+02  0.24968270821E+03  0.27693150141E+03  0.80633859005E+02 0.  0.
          2    1    6    6  501    0  0.21497511344E+02 -0.87779068927E+02  0.18269435218E+03  0.20382476359E+03  0.00000000000E+00 0. -1.
         -1    1    6    6    0  501 -0.29273494105E+02 -0.46670472775E+00  0.66988356027E+02  0.73106737812E+02  0.00000000000E+00 0.  1.
          5    1    5    5  502    0 -0.62678983231E+02 -0.20999825427E+02  0.20295675775E+02  0.69308383779E+02  0.47000000000E+01 0. -1.
         13    1    4    4    0    0 -0.33525841561E+02  0.11834056598E+02 -0.42147775707E+01  0.35802113037E+02  0.00000000000E+00 0. -1.
        -14    1    4    4    0    0  0.46892253460E+02 -0.19957246479E+01 -0.26922524953E+01  0.47011855684E+02  0.00000000000E+00 0.  1.
         -5    1    3    3    0  504  0.57088554093E+02  0.99407267132E+02  0.10169553682E+03  0.15331333920E+03  0.47000000000E+01 0.  1.
<mgrwt>
<rscale>  2 0.21665182E+03</rscale>
<asrwt>0</asrwt>
<pdfrwt beam="1">  1       21 0.72856467E-01 0.21678037E+03</pdfrwt>
<pdfrwt beam="2">  1       21 0.16738485E-01 0.21678037E+03</pdfrwt>
<totfact> 0.53816529E+04</totfact>
</mgrwt>
</event>
<event>
12    1  0.2791583E-001  0.1784925E+03  0.7546771E-02  0.1169287E+00
         21   -1    0    0  502  503  0.00000000000E+00  0.00000000000E+00  0.12857887341E+04  0.12857887341E+04  0.00000000000E+00 0. -1.
         21   -1    0    0  503  504 -0.00000000000E+00 -0.00000000000E+00 -0.42335643714E+02  0.42335643714E+02  0.00000000000E+00 0. -1.
         -6    2    1    2    0  504  0.14833902572E+01  0.43670808876E+02  0.19403371910E+03  0.26364493831E+03  0.17306134563E+03 0.  0.
        -24    2    3    3    0    0 -0.39516376470E+02 -0.35570181524E+01  0.17965432105E+03  0.19929973176E+03  0.76619264023E+02 0.  0.
          6    2    1    2  502    0 -0.14833902572E+01 -0.43670808876E+02  0.10494193713E+04  0.10644794395E+04  0.17299167700E+03 0.  0.
         24    2    5    5    0    0  0.46067152044E+02 -0.75009073205E+02  0.61230628803E+03  0.62364718293E+03  0.79172437493E+02 0.  0.
          2    1    6    6  501    0  0.73648467822E+01 -0.44095132141E+02  0.48481045552E+03  0.48686733248E+03  0.00000000000E+00 0. -1.
         -1    1    6    6    0  501  0.38702305262E+02 -0.30913941064E+02  0.12749583251E+03  0.13677985046E+03  0.00000000000E+00 0.  1.
          5    1    5    5  502    0 -0.47550542301E+02  0.31338264329E+02  0.43711308328E+03  0.44083225660E+03  0.47000000000E+01 0. -1.
         11    1    4    4    0    0 -0.32607763747E+02  0.32162471305E+02  0.68993111362E+02  0.82811474039E+02  0.00000000000E+00 0. -1.
        -12    1    4    4    0    0 -0.69086127226E+01 -0.35719489457E+02  0.11066120969E+03  0.11648825772E+03  0.00000000000E+00 0.  1.
         -5    1    3    3    0  504  0.40999766727E+02  0.47227827028E+02  0.14379398051E+02  0.64345206549E+02  0.47000000000E+01 0.  1.
<mgrwt>
<rscale>  2 0.17847560E+03</rscale>
<asrwt>0</asrwt>
<pdfrwt beam="1">  1       21 0.19781362E+00 0.17849249E+03</pdfrwt>
<pdfrwt beam="2">  1       21 0.65131769E-02 0.17849249E+03</pdfrwt>
<totfact> 0.24007463E+04</totfact>
</mgrwt>
</event>
<event>
12    1  0.2791583E-001  0.3238211E+03  0.7546771E-02  0.1074065E+00
         21   -1    0    0  502  503  0.00000000000E+00  0.00000000000E+00  0.16453962464E+04  0.16453962464E+04  0.00000000000E+00 0.  1.
         21   -1    0    0  503  504 -0.00000000000E+00 -0.00000000000E+00 -0.72855930911E+02  0.72855930911E+02  0.00000000000E+00 0. -1.
         -6    2    1    2    0  504  0.27390812034E+03  0.36702368963E+01  0.47908776993E+03  0.57826047023E+03  0.17268743760E+03 0.  0.
        -24    2    3    3    0    0  0.24444267030E+03  0.57054809992E+02  0.36906592621E+03  0.45238346087E+03  0.73713413767E+02 0.  0.
          6    2    1    2  502    0 -0.27390812034E+03 -0.36702368963E+01  0.10934525455E+04  0.11399917070E+04  0.17001027556E+03 0.  0.
         24    2    5    5    0    0 -0.87116577754E+02  0.27115730310E+02  0.28240822637E+03  0.30713287520E+03  0.79067286253E+02 0.  0.
          2    1    6    6  501    0  0.50179188033E+01  0.53858842126E+01 -0.17969170542E+01  0.75773457601E+01  0.00000000000E+00 0. -1.
         -1    1    6    6    0  501 -0.92134496558E+02  0.21729846097E+02  0.28420514343E+03  0.29955552944E+03  0.00000000000E+00 0.  1.
          5    1    5    5  502    0 -0.18679154259E+03 -0.30785967206E+02  0.81104431914E+03  0.83285883184E+03  0.47000000000E+01 0. -1.
         11    1    4    4    0    0  0.14249647449E+03  0.49502654455E+00  0.23386305017E+03  0.27385656196E+03  0.00000000000E+00 0. -1.
        -12    1    4    4    0    0  0.10194619581E+03  0.56559783447E+02  0.13520287604E+03  0.17852689890E+03  0.00000000000E+00 0.  1.
         -5    1    3    3    0  504  0.29465450047E+02 -0.53384573095E+02  0.11002184372E+03  0.12587700937E+03  0.47000000000E+01 0.  1.
<mgrwt>
<rscale>  2 0.32346555E+03</rscale>
<asrwt>0</asrwt>
<pdfrwt beam="1">  1       21 0.25313786E+00 0.32382106E+03</pdfrwt>
<pdfrwt beam="2">  1       21 0.11208606E-01 0.32382106E+03</pdfrwt>
<totfact> 0.37917475E+03</totfact>
</mgrwt>
</event>
<event>
12    1  0.2791583E-001  0.1802408E+03  0.7546771E-02  0.1169356E+00
         21   -1    0    0  502  503  0.00000000000E+00  0.00000000000E+00  0.14309563574E+04  0.14309563574E+04  0.00000000000E+00 0.  1.
         21   -1    0    0  503  504 -0.00000000000E+00 -0.00000000000E+00 -0.23562148955E+02  0.23562148955E+02  0.00000000000E+00 0.  1.
         -6    2    1    2    0  504 -0.46695804074E+02  0.16513946481E+02  0.49158206273E+03  0.52113828100E+03  0.16576783458E+03 0.  0.
        -24    2    3    3    0    0  0.78022135334E+01 -0.46836515294E+01  0.11670520466E+03  0.14169906215E+03  0.79848032490E+02 0.  0.
          6    2    1    2  502    0  0.46695804074E+02 -0.16513946481E+02  0.91581214576E+03  0.93338022540E+03  0.17330190505E+03 0.  0.
         24    2    5    5    0    0  0.81208293192E+02 -0.39700863132E+02  0.45556676345E+03  0.47123669039E+03  0.79699416527E+02 0.  0.
          2    1    6    6  501    0  0.36421119893E+02  0.23276552633E+02  0.16075478743E+03  0.16646440328E+03  0.00000000000E+00 0. -1.
         -1    1    6    6    0  501  0.44787173300E+02 -0.62977415765E+02  0.29481197602E+03  0.30477228711E+03  0.00000000000E+00 0.  1.
          5    1    5    5  502    0 -0.34512489118E+02  0.23186916651E+02  0.46024538231E+03  0.46214353501E+03  0.47000000000E+01 0. -1.
         11    1    4    4    0    0 -0.21816430170E+01 -0.10694060818E+01  0.12693305045E+03  0.12695630151E+03  0.00000000000E+00 0. -1.
        -12    1    4    4    0    0  0.99838565504E+01 -0.36142454476E+01 -0.10227845794E+02  0.14742760643E+02  0.00000000000E+00 0.  1.
         -5    1    3    3    0  504 -0.54498017608E+02  0.21197598010E+02  0.37487685807E+03  0.37943921885E+03  0.47000000000E+01 0.  1.
<mgrwt>
<rscale>  2 0.17840507E+03</rscale>
<asrwt>0</asrwt>
<pdfrwt beam="1">  1       21 0.22014706E+00 0.18024084E+03</pdfrwt>
<pdfrwt beam="2">  1       21 0.36249471E-02 0.18024084E+03</pdfrwt>
<totfact> 0.46793284E+04</totfact>
</mgrwt>
</event>
<event>
12    1  0.2791583E-001  0.2968262E+03  0.7546771E-02  0.1086862E+00
         21   -1    0    0  502  503  0.00000000000E+00  0.00000000000E+00  0.60136515080E+02  0.60136515080E+02  0.00000000000E+00 0.  1.
         21   -1    0    0  503  504 -0.00000000000E+00 -0.00000000000E+00 -0.29467883673E+04  0.29467883673E+04  0.00000000000E+00 0. -1.
         -6    2    1    2    0  504 -0.23788021038E+03 -0.40697754511E+02 -0.25099980280E+04  0.25274880610E+04  0.17280768620E+03 0.  0.
        -24    2    3    3    0    0 -0.16148147490E+03 -0.59263583484E+02 -0.11791645229E+04  0.11943258934E+04  0.79980801685E+02 0.  0.
          6    2    1    2  502    0  0.23788021038E+03  0.40697754511E+02 -0.37665382420E+03  0.47943682132E+03  0.17247684088E+03 0.  0.
         24    2    5    5    0    0  0.24900670181E+03  0.80053046312E+01 -0.33784002264E+03  0.42727173451E+03  0.79729742013E+02 0.  0.
          4    1    6    6  501    0  0.65237418194E+02 -0.30096013968E+02 -0.70717978223E+02  0.10081033297E+03  0.00000000000E+00 0. -1.
         -3    1    6    6    0  501  0.18376928362E+03  0.38101318599E+02 -0.26712204442E+03  0.32646140154E+03  0.00000000000E+00 0.  1.
          5    1    5    5  502    0 -0.11126491431E+02  0.32692449880E+02 -0.38813801553E+02  0.52165086808E+02  0.47000000000E+01 0. -1.
         13    1    4    4    0    0 -0.80185653348E+02 -0.43394450246E+02 -0.85096743580E+03  0.85583783167E+03  0.00000000000E+00 0. -1.
        -14    1    4    4    0    0 -0.81295821548E+02 -0.15869133238E+02 -0.32819708708E+03  0.33848806177E+03  0.00000000000E+00 0.  1.
         -5    1    3    3    0  504 -0.76398735486E+02  0.18565828973E+02 -0.13308335051E+04  0.13331621676E+04  0.47000000000E+01 0.  1.
<mgrwt>
<rscale>  2 0.29677807E+03</rscale>
<asrwt>0</asrwt>
<pdfrwt beam="1">  1       21 0.92517732E-02 0.29682621E+03</pdfrwt>
<pdfrwt beam="2">  1       21 0.45335198E+00 0.29682621E+03</pdfrwt>
<totfact> 0.31935848E+02</totfact>
</mgrwt>
</event>
<event>
12    1  0.2791583E-001  0.1748536E+03  0.7546771E-02  0.1172879E+00
         21   -1    0    0  502  503  0.00000000000E+00  0.00000000000E+00  0.22919471364E+04  0.22919471364E+04  0.00000000000E+00 0. -1.
         21   -1    0    0  503  504 -0.00000000000E+00 -0.00000000000E+00 -0.25058988983E+02  0.25058988983E+02  0.00000000000E+00 0. -1.
         -6    2    1    2    0  504  0.22232991371E+02  0.13365241326E+02  0.34118390374E+03  0.38338000491E+03  0.17291858319E+03 0.  0.
        -24    2    3    3    0    0 -0.24134886668E+01  0.69208193478E+02  0.26783770190E+03  0.28784132370E+03  0.79498390536E+02 0.  0.
          6    2    1    2  502    0 -0.22232991371E+02 -0.13365241326E+02  0.19257042437E+04  0.19336261204E+04  0.17291675476E+03 0.  0.
         24    2    5    5    0    0  0.51086198047E+02 -0.23335272454E+02  0.87974380109E+03  0.88504114895E+03  0.78704162518E+02 0.  0.
          4    1    6    6  501    0  0.84430761332E+01 -0.46526454861E+02  0.37529875825E+03  0.37826598378E+03  0.00000000000E+00 0. -1.
         -3    1    6    6    0  501  0.42643121914E+02  0.23191182406E+02  0.50444504284E+03  0.50677516517E+03  0.00000000000E+00 0.  1.
          5    1    5    5  502    0 -0.73319189418E+02  0.99700311288E+01  0.10459604426E+04  0.10485849715E+04  0.47000000000E+01 0. -1.
         13    1    4    4    0    0 -0.31535074737E+02  0.55981013987E+02  0.22728905507E+03  0.23619620958E+03  0.00000000000E+00 0. -1.
        -14    1    4    4    0    0  0.29121586070E+02  0.13227179491E+02  0.40548646826E+02  0.51645114115E+02  0.00000000000E+00 0.  1.
         -5    1    3    3    0  504  0.24646480038E+02 -0.55842952152E+02  0.73346201846E+02  0.95538681216E+02  0.47000000000E+01 0.  1.
<mgrwt>
<rscale>  2 0.17485312E+03</rscale>
<asrwt>0</asrwt>
<pdfrwt beam="1">  1       21 0.35260709E+00 0.17485357E+03</pdfrwt>
<pdfrwt beam="2">  1       21 0.38552309E-02 0.17485357E+03</pdfrwt>
<totfact> 0.71992591E+03</totfact>
</mgrwt>
</event>
<event>
12    1  0.2791583E-001  0.1882129E+03  0.7546771E-02  0.1160492E+00
         21   -1    0    0  502  503  0.00000000000E+00  0.00000000000E+00  0.78291079391E+02  0.78291079391E+02  0.00000000000E+00 0. -1.
         21   -1    0    0  503  504 -0.00000000000E+00 -0.00000000000E+00 -0.48552852936E+03  0.48552852936E+03  0.00000000000E+00 0.  1.
         -6    2    1    2    0  504 -0.71301524909E+02 -0.14006732196E+02 -0.12633924580E+03  0.22668411197E+03  0.17362023381E+03 0.  0.
        -24    2    3    3    0    0 -0.16299446036E+02 -0.67326696684E+02 -0.45451723842E+02  0.11518017257E+03  0.80012854745E+02 0.  0.
          6    2    1    2  502    0  0.71301524909E+02  0.14006732196E+02 -0.28089820417E+03  0.33713549679E+03  0.17168705859E+03 0.  0.
         24    2    5    5    0    0  0.48905302793E+02  0.16715742326E+02 -0.55460998806E+02  0.11052359714E+03  0.80426354217E+02 0.  0.
          2    1    6    6  501    0  0.32650495155E+02  0.21044223252E+01  0.15549697466E+02  0.36225357396E+02  0.00000000000E+00 0. -1.
         -1    1    6    6    0  501  0.16254807639E+02  0.14611320000E+02 -0.71010696272E+02  0.74298239740E+02  0.00000000000E+00 0.  1.
          5    1    5    5  502    0  0.22396222115E+02 -0.27090101295E+01 -0.22543720537E+03  0.22661189965E+03  0.47000000000E+01 0. -1.
         11    1    4    4    0    0 -0.44610158782E+02 -0.49539693507E+02 -0.47227001918E+02  0.81698452919E+02  0.00000000000E+00 0. -1.
        -12    1    4    4    0    0  0.28310712746E+02 -0.17787003178E+02  0.17752780752E+01  0.33481719646E+02  0.00000000000E+00 0.  1.
         -5    1    3    3    0  504 -0.55002078872E+02  0.53319964488E+02 -0.80887521958E+02  0.11150393940E+03  0.47000000000E+01 0.  1.
<mgrwt>
<rscale>  2 0.18776582E+03</rscale>
<asrwt>0</asrwt>
<pdfrwt beam="1">  1       21 0.12044781E-01 0.18821286E+03</pdfrwt>
<pdfrwt beam="2">  1       21 0.74696698E-01 0.18821286E+03</pdfrwt>
<totfact> 0.93688146E+04</totfact>
</mgrwt>
</event>
<event>
12    1  0.2791583E-001  0.2085478E+03  0.7546771E-02  0.1142781E+00
         21   -1    0    0  502  503  0.00000000000E+00  0.00000000000E+00  0.35094588987E+03  0.35094588987E+03  0.00000000000E+00 0.  1.
         21   -1    0    0  503  504 -0.00000000000E+00 -0.00000000000E+00 -0.22750204978E+03  0.22750204978E+03  0.00000000000E+00 0.  1.
         -6    2    1    2    0  504  0.10117512199E+03  0.54254899890E+02 -0.13356929896E+03  0.24765485684E+03  0.17410390868E+03 0.  0.
        -24    2    3    3    0    0  0.83774223683E+02  0.80366234179E+02 -0.37146155306E+02  0.14614571600E+03  0.80634243984E+02 0.  0.
          6    2    1    2  502    0 -0.10117512199E+03 -0.54254899890E+02  0.25701313906E+03  0.33079308281E+03  0.17374783599E+03 0.  0.
         24    2    5    5    0    0 -0.67129623586E+02 -0.40252900006E+02  0.52876985714E+02  0.12331100873E+03  0.79265042318E+02 0.  0.
          4    1    6    6  501    0 -0.21013412031E+02 -0.47364479648E+02 -0.12704799549E+01  0.51832147716E+02  0.00000000000E+00 0. -1.
         -3    1    6    6    0  501 -0.46116211556E+02  0.71115796425E+01  0.54147465669E+02  0.71478861012E+02  0.00000000000E+00 0.  1.
          5    1    5    5  502    0 -0.34045498407E+02 -0.14001999885E+02  0.20413615334E+03  0.20748207408E+03  0.47000000000E+01 0. -1.
         11    1    4    4    0    0  0.75338902213E+01  0.36611091501E+02  0.18909958405E+02  0.41889354849E+02  0.00000000000E+00 0. -1.
        -12    1    4    4    0    0  0.76240333462E+02  0.43755142678E+02 -0.56056113711E+02  0.10425636116E+03  0.00000000000E+00 0.  1.
         -5    1    3    3    0  504  0.17400898311E+02 -0.26111334289E+02 -0.96423143656E+02  0.10150914083E+03  0.47000000000E+01 0.  1.
<mgrwt>
<rscale>  2 0.20847343E+03</rscale>
<asrwt>0</asrwt>
<pdfrwt beam="1">  1       21 0.53991675E-01 0.20854777E+03</pdfrwt>
<pdfrwt beam="2">  1       21 0.35000315E-01 0.20854777E+03</pdfrwt>
<totfact> 0.25294731E+04</totfact>
</mgrwt>
</event>
<event>
12    1  0.2791583E-001  0.2834850E+03  0.7546771E-02  0.1093916E+00
         21   -1    0    0  502  503  0.00000000000E+00  0.00000000000E+00  0.69491456282E+03  0.69491456282E+03  0.00000000000E+00 0.  1.
         21   -1    0    0  503  504 -0.00000000000E+00 -0.00000000000E+00 -0.11562670189E+03  0.11562670189E+03  0.00000000000E+00 0.  1.
         -6    2    1    2    0  504 -0.20731055771E+03  0.84211060521E+02  0.26842338444E+03  0.39040345515E+03  0.17405336660E+03 0.  0.
        -24    2    3    3    0    0 -0.13426408879E+03  0.10578875799E+03  0.24464303479E+03  0.31047236808E+03  0.85584870230E+02 0.  0.
          6    2    1    2  502    0  0.20731055771E+03 -0.84211060521E+02  0.31086447648E+03  0.42013780956E+03  0.17265539734E+03 0.  0.
         24    2    5    5    0    0  0.19072051026E+03 -0.57388195330E+02  0.32123848505E+03  0.38660564850E+03  0.81252970271E+02 0.  0.
          2    1    6    6  501    0  0.23620453691E+02 -0.40699881085E+02  0.75644647596E+02  0.89087141961E+02  0.00000000000E+00 0. -1.
         -1    1    6    6    0  501  0.16710005657E+03 -0.16688314245E+02  0.24559383746E+03  0.29751850654E+03  0.00000000000E+00 0.  1.
          5    1    5    5  502    0  0.16590047449E+02 -0.26822865191E+02 -0.10374008570E+02  0.33532161059E+02  0.47000000000E+01 0. -1.
         11    1    4    4    0    0 -0.72619377773E+00  0.19170649522E+02  0.70434371389E+00  0.19197324307E+02  0.00000000000E+00 0. -1.
        -12    1    4    4    0    0 -0.13353789501E+03  0.86618108473E+02  0.24393869108E+03  0.29127504377E+03  0.00000000000E+00 0.  1.
         -5    1    3    3    0  504 -0.73046468920E+02 -0.21577697474E+02  0.23780349645E+02  0.79931087064E+02  0.47000000000E+01 0.  1.
<mgrwt>
<rscale>  2 0.28327071E+03</rscale>
<asrwt>0</asrwt>
<pdfrwt beam="1">  1       21 0.10690993E+00 0.28348500E+03</pdfrwt>
<pdfrwt beam="2">  1       21 0.17788724E-01 0.28348500E+03</pdfrwt>
<totfact> 0.19121617E+04</totfact>
</mgrwt>
</event>
<event>
12    1  0.2791583E-001  0.2756953E+03  0.7546771E-02  0.1098116E+00
         21   -1    0    0  502  503  0.00000000000E+00  0.00000000000E+00  0.69345166707E+03  0.69345166707E+03  0.00000000000E+00 0. -1.
         21   -1    0    0  503  504 -0.00000000000E+00 -0.00000000000E+00 -0.11329039094E+03  0.11329039094E+03  0.00000000000E+00 0. -1.
         -6    2    1    2    0  504  0.12076081655E+03 -0.17704523083E+03  0.21608286561E+03  0.35028517170E+03  0.17343502567E+03 0.  0.
        -24    2    3    3    0    0  0.28266144084E+01 -0.55988866938E+02  0.33229145413E+02  0.10124563214E+03  0.77483927064E+02 0.  0.
          6    2    1    2  502    0 -0.12076081655E+03  0.17704523083E+03  0.36407841053E+03  0.45645688631E+03  0.17283405762E+03 0.  0.
         24    2    5    5    0    0 -0.13697513750E+03  0.97796930318E+02  0.20043825906E+03  0.27385517079E+03  0.80589893912E+02 0.  0.
          4    1    6    6  501    0 -0.92726866600E+02  0.81706526659E+02  0.18829483516E+03  0.22523137711E+03  0.00000000000E+00 0. -1.
         -3    1    6    6    0  501 -0.44248270902E+02  0.16090403660E+02  0.12143423901E+02  0.48623793680E+02  0.00000000000E+00 0.  1.
          5    1    5    5  502    0  0.16214320949E+02  0.79248300513E+02  0.16364015147E+03  0.18260171552E+03  0.47000000000E+01 0. -1.
         13    1    4    4    0    0 -0.19204951244E+02 -0.67816571791E+02  0.22024717946E+02  0.73844470087E+02  0.00000000000E+00 0. -1.
        -14    1    4    4    0    0  0.22031565652E+02  0.11827704853E+02  0.11204427466E+02  0.27401162056E+02  0.00000000000E+00 0.  1.
         -5    1    3    3    0  504  0.11793420214E+03 -0.12105636389E+03  0.18285372020E+03  0.24903953956E+03  0.47000000000E+01 0.  1.
<mgrwt>
<rscale>  2 0.27560083E+03</rscale>
<asrwt>0</asrwt>
<pdfrwt beam="1">  1       21 0.10668487E+00 0.27569530E+03</pdfrwt>
<pdfrwt beam="2">  1       21 0.17429291E-01 0.27569530E+03</pdfrwt>
<totfact> 0.20034427E+04</totfact>
</mgrwt>
</event>
<event>
12    1  0.2791583E-001  0.2602493E+03  0.7546771E-02  0.1107091E+00
         21   -1    0    0  502  503  0.00000000000E+00  0.00000000000E+00  0.10980872207E+03  0.10980872207E+03  0.00000000000E+00 0.  1.
         21   -1    0    0  503  504 -0.00000000000E+00 -0.00000000000E+00 -0.65519760688E+03  0.65519760688E+03  0.00000000000E+00 0.  1.
         -6    2    1    2    0  504  0.18831638658E+03  0.45769313989E+02 -0.17793933747E+03  0.31472988359E+03  0.17272695287E+03 0.  0.
        -24    2    3    3    0    0  0.16619210898E+03 -0.24333957506E+02 -0.12719398558E+03  0.22528083065E+03  0.79757031757E+02 0.  0.
          6    2    1    2  502    0 -0.18831638658E+03 -0.45769313989E+02 -0.36744954734E+03  0.45027644536E+03  0.17370036228E+03 0.  0.
         24    2    5    5    0    0 -0.60101186337E+02 -0.38049128159E+01 -0.67239964490E+02  0.12111382268E+03  0.80750945871E+02 0.  0.
          4    1    6    6  501    0 -0.33136785542E+01  0.99461874599E+01  0.16172369944E+02  0.19273107175E+02  0.00000000000E+00 0. -1.
         -3    1    6    6    0  501 -0.56787507782E+02 -0.13751100276E+02 -0.83412334434E+02  0.10184071551E+03  0.00000000000E+00 0.  1.
          5    1    5    5  502    0 -0.12821520024E+03 -0.41964401173E+02 -0.30020958285E+03  0.32916262268E+03  0.47000000000E+01 0. -1.
         11    1    4    4    0    0  0.44787966724E+02 -0.42566094332E+02 -0.29935275106E+02  0.68658248198E+02  0.00000000000E+00 0. -1.
        -12    1    4    4    0    0  0.12140414226E+03  0.18232136826E+02 -0.97258710476E+02  0.15662258245E+03  0.00000000000E+00 0.  1.
         -5    1    3    3    0  504  0.22124277600E+02  0.70103271495E+02 -0.50745351886E+02  0.89449052938E+02  0.47000000000E+01 0.  1.
<mgrwt>
<rscale>  2 0.26008700E+03</rscale>
<asrwt>0</asrwt>
<pdfrwt beam="1">  1       21 0.16893650E-01 0.26024932E+03</pdfrwt>
<pdfrwt beam="2">  1       21 0.10079963E+00 0.26024932E+03</pdfrwt>
<totfact> 0.24526039E+04</totfact>
</mgrwt>
</event>
<event>
12    1  0.2791583E-001  0.2734015E+03  0.7546771E-02  0.1099485E+00
         21   -1    0    0  502  503  0.00000000000E+00  0.00000000000E+00  0.16512497591E+03  0.16512497591E+03  0.00000000000E+00 0.  1.
         21   -1    0    0  503  504 -0.00000000000E+00 -0.00000000000E+00 -0.88213855673E+03  0.88213855673E+03  0.00000000000E+00 0. -1.
         -6    2    1    2    0  504  0.16018693557E+03  0.13844326804E+03 -0.72421970681E+03  0.77376713059E+03  0.17144968901E+03 0.  0.
        -24    2    3    3    0    0  0.55556187189E+02  0.20583473256E+02 -0.40692601727E+03  0.41945667329E+03  0.82734200485E+02 0.  0.
          6    2    1    2  502    0 -0.16018693557E+03 -0.13844326804E+03  0.72061259933E+01  0.27349640205E+03  0.17297965457E+03 0.  0.
         24    2    5    5    0    0 -0.58892105476E+02 -0.38178078955E+02  0.56635545678E+02  0.12256890862E+03  0.83004256070E+02 0.  0.
          4    1    6    6  501    0  0.52050831741E+01 -0.96027339186E+01  0.51009027506E+02  0.52165374308E+02  0.00000000000E+00 0. -1.
         -3    1    6    6    0  501 -0.64097188650E+02 -0.28575345036E+02  0.56265181717E+01  0.70403534311E+02  0.00000000000E+00 0.  1.
          5    1    5    5  502    0 -0.10129483009E+03 -0.10026518908E+03 -0.49429419685E+02  0.15092749344E+03  0.47000000000E+01 0. -1.
         13    1    4    4    0    0 -0.17569225418E+02  0.20171800977E+01 -0.16735530307E+03  0.16828708852E+03  0.00000000000E+00 0. -1.
        -14    1    4    4    0    0  0.73125412607E+02  0.18566293159E+02 -0.23957071420E+03  0.25116958477E+03  0.00000000000E+00 0.  1.
         -5    1    3    3    0  504  0.10463074838E+03  0.11785979478E+03 -0.31729368954E+03  0.35431045730E+03  0.47000000000E+01 0.  1.
<mgrwt>
<rscale>  2 0.27315978E+03</rscale>
<asrwt>0</asrwt>
<pdfrwt beam="1">  1       21 0.25403842E-01 0.27340145E+03</pdfrwt>
<pdfrwt beam="2">  1       21 0.13571363E+00 0.27340145E+03</pdfrwt>
<totfact> 0.53817655E+03</totfact>
</mgrwt>
</event>
<event>
12    1  0.2791583E-001  0.2421055E+03  0.7546771E-02  0.1118472E+00
         21   -1    0    0  502  503  0.00000000000E+00  0.00000000000E+00  0.95571626074E+02  0.95571626074E+02  0.00000000000E+00 0. -1.
         21   -1    0    0  503  504 -0.00000000000E+00 -0.00000000000E+00 -0.77526062915E+03  0.77526062915E+03  0.00000000000E+00 0. -1.
         -6    2    1    2    0  504 -0.15695067743E+03  0.62453271138E+02 -0.53979651121E+03  0.59160405548E+03  0.17343920758E+03 0.  0.
        -24    2    3    3    0    0 -0.79167401216E+02  0.46152026548E+02 -0.14576495738E+03  0.18961036891E+03  0.79417770217E+02 0.  0.
          6    2    1    2  502    0  0.15695067743E+03 -0.62453271138E+02 -0.13989249186E+03  0.27922819974E+03  0.17281363380E+03 0.  0.
         24    2    5    5    0    0  0.12211119277E+03 -0.68455083196E+02 -0.16932625995E+03  0.23298700443E+03  0.77552047734E+02 0.  0.
          4    1    6    6  501    0  0.11104916943E+03 -0.71636267291E+02 -0.10822430202E+03  0.17081034035E+03  0.00000000000E+00 0. -1.
         -3    1    6    6    0  501  0.11062023338E+02  0.31811840942E+01 -0.61101957934E+02  0.62176664079E+02  0.00000000000E+00 0.  1.
          5    1    5    5  502    0  0.34839484658E+02  0.60018120588E+01  0.29433768094E+02  0.46241195307E+02  0.47000000000E+01 0. -1.
         13    1    4    4    0    0 -0.82751084250E+02  0.46713987894E+02 -0.15380353615E+03  0.18079122307E+03  0.00000000000E+00 0. -1.
        -14    1    4    4    0    0  0.35836830346E+01 -0.56196134647E+00  0.80385787641E+01  0.88191458314E+01  0.00000000000E+00 0.  1.
         -5    1    3    3    0  504 -0.77783276214E+02  0.16301244590E+02 -0.39403155383E+03  0.40199368658E+03  0.47000000000E+01 0.  1.
<mgrwt>
<rscale>  2 0.24199351E+03</rscale>
<asrwt>0</asrwt>
<pdfrwt beam="1">  1       21 0.14703327E-01 0.24210552E+03</pdfrwt>
<pdfrwt beam="2">  1       21 0.11927087E+00 0.24210552E+03</pdfrwt>
<totfact> 0.21190847E+04</totfact>
</mgrwt>
</event>
<event>
12    1  0.2791583E-001  0.2152813E+03  0.7546771E-02  0.1137699E+00
         21   -1    0    0  502  503  0.00000000000E+00  0.00000000000E+00  0.11355889684E+03  0.11355889684E+03  0.00000000000E+00 0.  1.
         21   -1    0    0  503  504 -0.00000000000E+00 -0.00000000000E+00 -0.72429362191E+03  0.72429362191E+03  0.00000000000E+00 0.  1.
         -6    2    1    2    0  504 -0.96023966417E+02 -0.82452188822E+02 -0.58270276170E+03  0.62075381752E+03  0.17255094294E+03 0.  0.
        -24    2    3    3    0    0 -0.88979219929E+02 -0.41188100513E+01 -0.22833494539E+03  0.25773262542E+03  0.79718208347E+02 0.  0.
          6    2    1    2  502    0  0.96023966417E+02  0.82452188822E+02 -0.28031963369E+02  0.21709870123E+03  0.17414674713E+03 0.  0.
         24    2    5    5    0    0  0.93172678103E+02 -0.19283391658E+01 -0.46809950486E+02  0.13047938382E+03  0.78414486541E+02 0.  0.
          2    1    6    6  501    0  0.51243189189E+02 -0.16018349255E+02 -0.63542188977E+02  0.83186908412E+02  0.00000000000E+00 0. -1.
         -1    1    6    6    0  501  0.41929488914E+02  0.14090010089E+02  0.16732238490E+02  0.47292475404E+02  0.00000000000E+00 0.  1.
          5    1    5    5  502    0  0.28512883145E+01  0.84380527987E+02  0.18777987117E+02  0.86619317410E+02  0.47000000000E+01 0. -1.
         13    1    4    4    0    0 -0.22570998570E+02 -0.62776135985E+01 -0.40022957915E+01  0.23767136566E+02  0.00000000000E+00 0. -1.
        -14    1    4    4    0    0 -0.66408221359E+02  0.21588035472E+01 -0.22433264960E+03  0.23396548885E+03  0.00000000000E+00 0.  1.
         -5    1    3    3    0  504 -0.70447464887E+01 -0.78333378770E+02 -0.35436781630E+03  0.36302119210E+03  0.47000000000E+01 0.  1.
<mgrwt>
<rscale>  2 0.21495841E+03</rscale>
<asrwt>0</asrwt>
<pdfrwt beam="1">  1       21 0.17470600E-01 0.21528134E+03</pdfrwt>
<pdfrwt beam="2">  1       21 0.11142979E+00 0.21528134E+03</pdfrwt>
<totfact> 0.18514508E+04</totfact>
</mgrwt>
</event>
<event>
12    1  0.2791583E-001  0.2170175E+03  0.7546771E-02  0.1136713E+00
         21   -1    0    0  502  503  0.00000000000E+00  0.00000000000E+00  0.20324564683E+03  0.20324564683E+03  0.00000000000E+00 0.  1.
         21   -1    0    0  503  504 -0.00000000000E+00 -0.00000000000E+00 -0.23458177457E+03  0.23458177457E+03  0.00000000000E+00 0. -1.
         -6    2    1    2    0  504  0.12284538737E+03  0.26369156766E+02 -0.50928927074E+02  0.21992725106E+03  0.17317020101E+03 0.  0.
        -24    2    3    3    0    0  0.12767470161E+02 -0.15118805304E+02 -0.60064152692E+02  0.10184278468E+03  0.79828965820E+02 0.  0.
          6    2    1    2  502    0 -0.12284538737E+03 -0.26369156766E+02  0.19592799328E+02  0.21790017034E+03  0.17694712436E+03 0.  0.
         24    2    5    5    0    0 -0.13737039417E+03  0.26342096528E+02  0.15371783178E+02  0.16286055711E+03  0.81992305131E+02 0.  0.
          2    1    6    6  501    0 -0.66381694533E+02  0.58621197989E+01 -0.33188578358E+02  0.74447132591E+02  0.00000000000E+00 0. -1.
         -1    1    6    6    0  501 -0.70988699640E+02  0.20479976729E+02  0.48560361536E+02  0.88413424523E+02  0.00000000000E+00 0.  1.
          5    1    5    5  502    0  0.14525006799E+02 -0.52711253294E+02  0.42210161499E+01  0.55039613222E+02  0.47000000000E+01 0. -1.
         11    1    4    4    0    0  0.36802219336E+02 -0.10087917982E+02 -0.66309242318E+02  0.76505457675E+02  0.00000000000E+00 0. -1.
        -12    1    4    4    0    0 -0.24034749175E+02 -0.50308873218E+01  0.62450896259E+01  0.25337327002E+02  0.00000000000E+00 0.  1.
         -5    1    3    3    0  504  0.11007791721E+03  0.41487962070E+02  0.91352256175E+01  0.11808446639E+03  0.47000000000E+01 0.  1.
<mgrwt>
<rscale>  2 0.21624633E+03</rscale>
<asrwt>0</asrwt>
<pdfrwt beam="1">  1       21 0.31268561E-01 0.21701753E+03</pdfrwt>
<pdfrwt beam="2">  1       21 0.36089504E-01 0.21701753E+03</pdfrwt>
<totfact> 0.72003092E+04</totfact>
</mgrwt>
</event>
<event>
12    1  0.2791583E-001  0.2297509E+03  0.7546771E-02  0.1126869E+00
         21   -1    0    0  502  503  0.00000000000E+00  0.00000000000E+00  0.54593845432E+03  0.54593845432E+03  0.00000000000E+00 0.  1.
         21   -1    0    0  503  504 -0.00000000000E+00 -0.00000000000E+00 -0.10175623924E+03  0.10175623924E+03  0.00000000000E+00 0. -1.
         -6    2    1    2    0  504 -0.89598075327E+02 -0.12128548713E+03  0.14876868761E+03  0.27345595971E+03  0.17293945472E+03 0.  0.
        -24    2    3    3    0    0 -0.67627961999E+02 -0.67909221181E+02  0.12174048706E+02  0.12509189053E+03  0.79464269008E+02 0.  0.
          6    2    1    2  502    0  0.89598075327E+02  0.12128548713E+03  0.29541352746E+03  0.37423873385E+03  0.17334212764E+03 0.  0.
         24    2    5    5    0    0 -0.12450727357E+02  0.62760174479E+02  0.18104658321E+03  0.21010141851E+03  0.85269459088E+02 0.  0.
          4    1    6    6  501    0 -0.17840472327E+02  0.57957276465E+02  0.49287334081E+02  0.78144543308E+02  0.00000000000E+00 0. -1.
         -3    1    6    6    0  501  0.53897449699E+01  0.48028980135E+01  0.13175924913E+03  0.13195687520E+03  0.00000000000E+00 0.  1.
          5    1    5    5  502    0  0.10204880268E+03  0.58525312656E+02  0.11436694424E+03  0.16413731534E+03  0.47000000000E+01 0. -1.
         11    1    4    4    0    0  0.19144264739E+01 -0.38465275633E+02 -0.19537526515E+02  0.43185152548E+02  0.00000000000E+00 0. -1.
        -12    1    4    4    0    0 -0.69542388473E+02 -0.29443945548E+02  0.31711575221E+02  0.81906737983E+02  0.00000000000E+00 0.  1.
         -5    1    3    3    0  504 -0.21970113328E+02 -0.53376265953E+02  0.13659463891E+03  0.14836406918E+03  0.47000000000E+01 0.  1.
<mgrwt>
<rscale>  2 0.22967495E+03</rscale>
<asrwt>0</asrwt>
<pdfrwt beam="1">  1       21 0.83990530E-01 0.22975090E+03</pdfrwt>
<pdfrwt beam="2">  1       21 0.15654806E-01 0.22975090E+03</pdfrwt>
<totfact> 0.43875585E+04</totfact>
</mgrwt>
</event>
<event>
12    1  0.2791583E-001  0.1962917E+03  0.7546771E-02  0.1153106E+00
         21   -1    0    0  502  503  0.00000000000E+00  0.00000000000E+00  0.24299962343E+03  0.24299962343E+03  0.00000000000E+00 0.  1.
         21   -1    0    0  503  504 -0.00000000000E+00 -0.00000000000E+00 -0.17681220976E+03  0.17681220976E+03  0.00000000000E+00 0.  1.
         -6    2    1    2    0  504 -0.50803157009E+01  0.93881414552E+02 -0.35634488492E+02  0.19949997224E+03  0.17231045397E+03 0.  0.
        -24    2    3    3    0    0  0.51808748445E+02  0.11947129209E+02 -0.13183361811E+02  0.97148930116E+02  0.80232370539E+02 0.  0.
          6    2    1    2  502    0  0.50803157009E+01 -0.93881414552E+02  0.10182190216E+03  0.22031186095E+03  0.17126028936E+03 0.  0.
         24    2    5    5    0    0 -0.73752177328E+01 -0.12999402557E+03  0.65644164288E+02  0.16748970930E+03  0.82406346216E+02 0.  0.
          2    1    6    6  501    0 -0.35505077943E+02 -0.41279859190E+02  0.15189937268E+01  0.54469667490E+02  0.00000000000E+00 0. -1.
         -1    1    6    6    0  501  0.28129860210E+02 -0.88714166381E+02  0.64125170561E+02  0.11302004181E+03  0.00000000000E+00 0.  1.
          5    1    5    5  502    0  0.12455533434E+02  0.36112611019E+02  0.36177737868E+02  0.52822151650E+02  0.47000000000E+01 0. -1.
         11    1    4    4    0    0  0.52188605911E+01 -0.12323715143E+02  0.27580086850E+02  0.30655695253E+02  0.00000000000E+00 0. -1.
        -12    1    4    4    0    0  0.46589887854E+02  0.24270844352E+02 -0.40763448661E+02  0.66493234863E+02  0.00000000000E+00 0.  1.
         -5    1    3    3    0  504 -0.56889064146E+02  0.81934285343E+02 -0.22451126681E+02  0.10235104212E+03  0.47000000000E+01 0.  1.
<mgrwt>
<rscale>  2 0.19606097E+03</rscale>
<asrwt>0</asrwt>
<pdfrwt beam="1">  1       21 0.37384558E-01 0.19629168E+03</pdfrwt>
<pdfrwt beam="2">  1       21 0.27201878E-01 0.19629168E+03</pdfrwt>
<totfact> 0.88770550E+04</totfact>
</mgrwt>
</event>
<event>
12    1  0.2791583E-001  0.1795110E+03  0.7546771E-02  0.1168617E+00
         21   -1    0    0  502  503  0.00000000000E+00  0.00000000000E+00  0.22054578545E+03  0.22054578545E+03  0.00000000000E+00 0. -1.
         21   -1    0    0  503  504 -0.00000000000E+00 -0.00000000000E+00 -0.25902493553E+03  0.25902493553E+03  0.00000000000E+00 0. -1.
         -6    2    1    2    0  504  0.37383450314E+02 -0.20932051674E+02 -0.17830424045E+03  0.25202898116E+03  0.17288878517E+03 0.  0.
        -24    2    3    3    0    0  0.91380686209E+02 -0.22861939928E+02 -0.13345262566E+03  0.18165012566E+03  0.79461102094E+02 0.  0.
          6    2    1    2  502    0 -0.37383450314E+02  0.20932051674E+02  0.13982509037E+03  0.22754173982E+03  0.17432301718E+03 0.  0.
         24    2    5    5    0    0  0.15266561989E+02 -0.34759347062E+02  0.12266127080E+03  0.14886364636E+03  0.75321429415E+02 0.  0.
          4    1    6    6  501    0 -0.21258879285E+02  0.11802282674E+02  0.45859670370E+02  0.51907063019E+02  0.00000000000E+00 0. -1.
         -3    1    6    6    0  501  0.36525441274E+02 -0.46561629736E+02  0.76801600434E+02  0.96956583341E+02  0.00000000000E+00 0.  1.
          5    1    5    5  502    0 -0.52650012302E+02  0.55691398736E+02  0.17163819568E+02  0.78678093462E+02  0.47000000000E+01 0. -1.
         11    1    4    4    0    0  0.91322826746E+02 -0.32502137408E+02 -0.75410447689E+02  0.12281279755E+03  0.00000000000E+00 0. -1.
        -12    1    4    4    0    0  0.57859463688E-01  0.96401974804E+01 -0.58042177975E+02  0.58837328111E+02  0.00000000000E+00 0.  1.
         -5    1    3    3    0  504 -0.53997235896E+02  0.19298882540E+01 -0.44851614784E+02  0.70378855502E+02  0.47000000000E+01 0.  1.
<mgrwt>
<rscale>  2 0.17916184E+03</rscale>
<asrwt>0</asrwt>
<pdfrwt beam="1">  1       21 0.33930121E-01 0.17951097E+03</pdfrwt>
<pdfrwt beam="2">  1       21 0.39849990E-01 0.17951097E+03</pdfrwt>
<totfact> 0.51105150E+04</totfact>
</mgrwt>
</event>
<event>
12    1  0.2791583E-001  0.2100296E+03  0.7546771E-02  0.1141548E+00
         21   -1    0    0  502  503  0.00000000000E+00  0.00000000000E+00  0.18227489169E+03  0.18227489169E+03  0.00000000000E+00 0. -1.
         21   -1    0    0  503  504 -0.00000000000E+00 -0.00000000000E+00 -0.26221429409E+03  0.26221429409E+03  0.00000000000E+00 0.  1.
         -6    2    1    2    0  504  0.96597238079E+02  0.70027872244E+02 -0.10170486776E+03  0.23333478649E+03  0.17281872920E+03 0.  0.
        -24    2    3    3    0    0  0.68643466878E+02  0.39737576106E+02  0.10838412794E+02  0.11338898471E+03  0.80303114273E+02 0.  0.
          6    2    1    2  502    0 -0.96597238079E+02 -0.70027872244E+02  0.21765465370E+02  0.21115439930E+03  0.17285113701E+03 0.  0.
         24    2    5    5    0    0 -0.29169800683E+02 -0.52810405371E+02  0.72755080229E+02  0.12475456537E+03  0.81428396114E+02 0.  0.
          4    1    6    6  501    0 -0.34048180274E+02 -0.48725095487E+02  0.89160255859E+02  0.10715859618E+03  0.00000000000E+00 0. -1.
         -3    1    6    6    0  501  0.48783795913E+01 -0.40853098843E+01 -0.16405175629E+02  0.17595969190E+02  0.00000000000E+00 0.  1.
          5    1    5    5  502    0 -0.67427437397E+02 -0.17217466873E+02 -0.50989614859E+02  0.86399833929E+02  0.47000000000E+01 0. -1.
         11    1    4    4    0    0  0.70847251126E+02  0.35941404434E+02 -0.20257609028E+02  0.81984683133E+02  0.00000000000E+00 0. -1.
        -12    1    4    4    0    0 -0.22037842483E+01  0.37961716719E+01  0.31096021823E+02  0.31404301577E+02  0.00000000000E+00 0.  1.
         -5    1    3    3    0  504  0.27953771202E+02  0.30290296138E+02 -0.11254328056E+03  0.11994580178E+03  0.47000000000E+01 0.  1.
<mgrwt>
<rscale>  2 0.21002296E+03</rscale>
<asrwt>0</asrwt>
<pdfrwt beam="1">  1       21 0.28042291E-01 0.21002963E+03</pdfrwt>
<pdfrwt beam="2">  1       21 0.40340660E-01 0.21002963E+03</pdfrwt>
<totfact> 0.71382233E+04</totfact>
</mgrwt>
</event>
<event>
12    1  0.2791583E-001  0.2100978E+03  0.7546771E-02  0.1141595E+00
         21   -1    0    0  502  503  0.00000000000E+00  0.00000000000E+00  0.86394140638E+03  0.86394140638E+03  0.00000000000E+00 0.  1.
         21   -1    0    0  503  504 -0.00000000000E+00 -0.00000000000E+00 -0.94162975671E+02  0.94162975671E+02  0.00000000000E+00 0. -1.
         -6    2    1    2    0  504 -0.11429690381E+03  0.32916269024E+02  0.60675497902E+02  0.21868381889E+03  0.17318727901E+03 0.  0.
        -24    2    3    3    0    0 -0.11638821861E+03  0.54166130315E+02 -0.43873684221E+01  0.15004566058E+03  0.77551686965E+02 0.  0.
          6    2    1    2  502    0  0.11429690381E+03 -0.32916269024E+02  0.70910293281E+03  0.73942056317E+03  0.17253561060E+03 0.  0.
         24    2    5    5    0    0  0.70943440582E+02 -0.79068299788E+02  0.58522509890E+03  0.60021804720E+03  0.80551350110E+02 0.  0.
          4    1    6    6  501    0  0.16710875631E+02 -0.76898259193E+02  0.32477756660E+03  0.33417519866E+03  0.00000000000E+00 0. -1.
         -3    1    6    6    0  501  0.54232564951E+02 -0.21700405951E+01  0.26044753230E+03  0.26604284854E+03  0.00000000000E+00 0.  1.
          5    1    5    5  502    0  0.43353463232E+02  0.46152030764E+02  0.12387783391E+03  0.13920251597E+03  0.47000000000E+01 0. -1.
         13    1    4    4    0    0 -0.46338418082E+01  0.35834555125E+02 -0.68234709416E+01  0.36771559480E+02  0.00000000000E+00 0. -1.
        -14    1    4    4    0    0 -0.11175437680E+03  0.18331575190E+02  0.24361025195E+01  0.11327410110E+03  0.00000000000E+00 0.  1.
         -5    1    3    3    0  504  0.20913147968E+01 -0.21249861291E+02  0.65062866324E+02  0.68638158314E+02  0.47000000000E+01 0.  1.
<mgrwt>
<rscale>  2 0.20996348E+03</rscale>
<asrwt>0</asrwt>
<pdfrwt beam="1">  1       21 0.13291406E+00 0.21009783E+03</pdfrwt>
<pdfrwt beam="2">  1       21 0.14486612E-01 0.21009783E+03</pdfrwt>
<totfact> 0.16883341E+04</totfact>
</mgrwt>
</event>
<event>
12    1  0.2791583E-001  0.1874683E+03  0.7546771E-02  0.1161322E+00
         21   -1    0    0  502  503  0.00000000000E+00  0.00000000000E+00  0.18158615426E+03  0.18158615426E+03  0.00000000000E+00 0. -1.
         21   -1    0    0  503  504 -0.00000000000E+00 -0.00000000000E+00 -0.19379328532E+03  0.19379328532E+03  0.00000000000E+00 0. -1.
         -6    2    1    2    0  504 -0.57185752682E+02 -0.33008599611E+02 -0.28353580696E+02  0.18721710784E+03  0.17287724539E+03 0.  0.
        -24    2    3    3    0    0  0.25213559678E+02 -0.33212896758E+02  0.20156493816E+02  0.91483071345E+02  0.78892635886E+02 0.  0.
          6    2    1    2  502    0  0.57185752682E+02  0.33008599611E+02  0.16146449635E+02  0.18816233174E+03  0.17545534273E+03 0.  0.
         24    2    5    5    0    0  0.10439989646E+03  0.32559885104E+02  0.31498409235E+02  0.13829100350E+03  0.78566961026E+02 0.  0.
          2    1    6    6  501    0  0.84544836935E+01 -0.20115104303E+02 -0.59357816362E+01  0.22612589840E+02  0.00000000000E+00 0. -1.
         -1    1    6    6    0  501  0.95945412765E+02  0.52674989407E+02  0.37434190871E+02  0.11567841366E+03  0.00000000000E+00 0.  1.
          5    1    5    5  502    0 -0.47214143776E+02  0.44871450694E+00 -0.15351959600E+02  0.49871328243E+02  0.47000000000E+01 0. -1.
         11    1    4    4    0    0  0.13502111273E+02 -0.27734996983E+02 -0.27976401160E+02  0.41643920184E+02  0.00000000000E+00 0. -1.
        -12    1    4    4    0    0  0.11711448404E+02 -0.54778997751E+01  0.48132894976E+02  0.49839151161E+02  0.00000000000E+00 0.  1.
         -5    1    3    3    0  504 -0.82399312360E+02  0.20429714687E+00 -0.48510074512E+02  0.95734036497E+02  0.47000000000E+01 0.  1.
<mgrwt>
<rscale>  2 0.18686268E+03</rscale>
<asrwt>0</asrwt>
<pdfrwt beam="1">  1       21 0.27936331E-01 0.18746828E+03</pdfrwt>
<pdfrwt beam="2">  1       21 0.29814352E-01 0.18746828E+03</pdfrwt>
<totfact> 0.13222096E+05</totfact>
</mgrwt>
</event>
<event>
12    1  0.2791583E-001  0.1851680E+03  0.7546771E-02  0.1163021E+00
         21   -1    0    0  502  503  0.00000000000E+00  0.00000000000E+00  0.28504086783E+03  0.28504086783E+03  0.00000000000E+00 0. -1.
         21   -1    0    0  503  504 -0.00000000000E+00 -0.00000000000E+00 -0.16226601049E+03  0.16226601049E+03  0.00000000000E+00 0. -1.
         -6    2    1    2    0  504 -0.35345793310E+02  0.53533046118E+02 -0.52780323416E+02  0.19254334458E+03  0.17370107907E+03 0.  0.
        -24    2    3    3    0    0  0.17084286227E+02  0.25507853446E+02  0.29376654317E+02  0.91023968817E+02  0.80497525782E+02 0.  0.
          6    2    1    2  502    0  0.35345793310E+02 -0.53533046118E+02  0.17555518075E+03  0.25476353374E+03  0.17311766087E+03 0.  0.
         24    2    5    5    0    0  0.40284469005E+02 -0.61338651016E+02  0.36060504608E+02  0.11488439785E+03  0.80701897909E+02 0.  0.
          4    1    6    6  501    0  0.37723130364E+02 -0.61047792527E+02 -0.66739648094E+01  0.72072250854E+02  0.00000000000E+00 0. -1.
         -3    1    6    6    0  501  0.25613386402E+01 -0.29085848899E+00  0.42734469417E+02  0.42812146999E+02  0.00000000000E+00 0.  1.
          5    1    5    5  502    0 -0.49386756949E+01  0.78056048979E+01  0.13949467614E+03  0.13987913589E+03  0.47000000000E+01 0. -1.
         13    1    4    4    0    0 -0.17459353312E+02  0.43328975252E+02  0.10815870906E+02  0.47950100917E+02  0.00000000000E+00 0. -1.
        -14    1    4    4    0    0  0.34543639540E+02 -0.17821121806E+02  0.18560783411E+02  0.43073867901E+02  0.00000000000E+00 0.  1.
         -5    1    3    3    0  504 -0.52430079537E+02  0.28025192672E+02 -0.82156977733E+02  0.10151937576E+03  0.47000000000E+01 0.  1.
<mgrwt>
<rscale>  2 0.18503102E+03</rscale>
<asrwt>0</asrwt>
<pdfrwt beam="1">  1       21 0.43852441E-01 0.18516797E+03</pdfrwt>
<pdfrwt beam="2">  1       21 0.24964002E-01 0.18516797E+03</pdfrwt>
<totfact> 0.76120812E+04</totfact>
</mgrwt>
</event>
<event>
12    1  0.2791583E-001  0.1977914E+03  0.7546771E-02  0.1152020E+00
         21   -1    0    0  502  503  0.00000000000E+00  0.00000000000E+00  0.30042836353E+03  0.30042836353E+03  0.00000000000E+00 0. -1.
         21   -1    0    0  503  504 -0.00000000000E+00 -0.00000000000E+00 -0.30108773497E+03  0.30108773497E+03  0.00000000000E+00 0. -1.
         -6    2    1    2    0  504  0.33906053891E+02 -0.89410237391E+02 -0.22771661228E+03  0.30162276827E+03  0.17314048570E+03 0.  0.
        -24    2    3    3    0    0 -0.24665646459E+02 -0.20607968454E+02 -0.17873184103E+03  0.19873450797E+03  0.80729493873E+02 0.  0.
          6    2    1    2  502    0 -0.33906053891E+02  0.89410237391E+02  0.22705724084E+03  0.29989333023E+03  0.17098891151E+03 0.  0.
         24    2    5    5    0    0 -0.75051822008E+02  0.24736089091E+02  0.17901456385E+03  0.20930686047E+03  0.74286591494E+02 0.  0.
          4    1    6    6  501    0 -0.72950889730E+02  0.19719280472E+02  0.79653019997E+02  0.10979656611E+03  0.00000000000E+00 0. -1.
         -3    1    6    6    0  501 -0.21009322773E+01  0.50168086188E+01  0.99361543857E+02  0.99510294356E+02  0.00000000000E+00 0.  1.
          5    1    5    5  502    0  0.41145768117E+02  0.64674148300E+02  0.48042676981E+02  0.90586469761E+02  0.47000000000E+01 0. -1.
         13    1    4    4    0    0  0.19044572218E+02  0.87676896466E+01 -0.11086978215E+03  0.11283473183E+03  0.00000000000E+00 0. -1.
        -14    1    4    4    0    0 -0.43710218677E+02 -0.29375658101E+02 -0.67862058875E+02  0.85899776137E+02  0.00000000000E+00 0.  1.
         -5    1    3    3    0  504  0.58571700350E+02 -0.68802268937E+02 -0.48984771247E+02  0.10288826030E+03  0.47000000000E+01 0.  1.
<mgrwt>
<rscale>  2 0.19731955E+03</rscale>
<asrwt>0</asrwt>
<pdfrwt beam="1">  1       21 0.46219748E-01 0.19779140E+03</pdfrwt>
<pdfrwt beam="2">  1       21 0.46321190E-01 0.19779140E+03</pdfrwt>
<totfact> 0.19962261E+04</totfact>
</mgrwt>
</event>
<event>
12    1  0.2791583E-001  0.2190680E+03  0.7546771E-02  0.1135130E+00
         21   -1    0    0  502  503  0.00000000000E+00  0.00000000000E+00  0.98399636148E+02  0.98399636148E+02  0.00000000000E+00 0. -1.
         21   -1    0    0  503  504 -0.00000000000E+00 -0.00000000000E+00 -0.48667732440E+03  0.48667732440E+03  0.00000000000E+00 0. -1.
         -6    2    1    2    0  504 -0.47026458737E+02 -0.12649808697E+03 -0.16194550945E+03  0.27008961680E+03  0.16884548925E+03 0.  0.
        -24    2    3    3    0    0 -0.22807447164E+02 -0.13135876642E+03 -0.63092829295E+02  0.16808898395E+03  0.80609529559E+02 0.  0.
          6    2    1    2  502    0  0.47026458737E+02  0.12649808697E+03 -0.22633217880E+03  0.31498734375E+03  0.17256163460E+03 0.  0.
         24    2    5    5    0    0  0.82086720510E+02  0.13670895564E+03 -0.16908640509E+03  0.24692375288E+03  0.83388003428E+02 0.  0.
          4    1    6    6  501    0  0.96618810115E+02  0.11584518785E+03 -0.12447060207E+03  0.19557155416E+03  0.00000000000E+00 0. -1.
         -3    1    6    6    0  501 -0.14532089605E+02  0.20863767785E+02 -0.44615803025E+02  0.51352198726E+02  0.00000000000E+00 0.  1.
          5    1    5    5  502    0 -0.35060261773E+02 -0.10210868666E+02 -0.57245773708E+02  0.68063590869E+02  0.47000000000E+01 0. -1.
         11    1    4    4    0    0 -0.57336933669E+01 -0.69453427427E+02  0.10435012842E+02  0.70466611342E+02  0.00000000000E+00 0. -1.
        -12    1    4    4    0    0 -0.17073753797E+02 -0.61905338993E+02 -0.73527842137E+02  0.97622372609E+02  0.00000000000E+00 0.  1.
         -5    1    3    3    0  504 -0.24219011574E+02  0.48606794487E+01 -0.98852680160E+02  0.10200063285E+03  0.47000000000E+01 0.  1.
<mgrwt>
<rscale>  2 0.21833552E+03</rscale>
<asrwt>0</asrwt>
<pdfrwt beam="1">  1       21 0.15138406E-01 0.21906796E+03</pdfrwt>
<pdfrwt beam="2">  1       21 0.74873433E-01 0.21906796E+03</pdfrwt>
<totfact> 0.60821048E+04</totfact>
</mgrwt>
</event>
<event>
12    1  0.2791583E-001  0.2190071E+03  0.7546771E-02  0.1134760E+00
         21   -1    0    0  502  503  0.00000000000E+00  0.00000000000E+00  0.15279876285E+04  0.15279876285E+04  0.00000000000E+00 0.  1.
         21   -1    0    0  503  504 -0.00000000000E+00 -0.00000000000E+00 -0.46225674305E+02  0.46225674305E+02  0.00000000000E+00 0. -1.
         -6    2    1    2    0  504  0.92185605657E+01 -0.13462925540E+03  0.29261423169E+03  0.36506632014E+03  0.17158179171E+03 0.  0.
        -24    2    3    3    0    0 -0.20894458904E+01 -0.10752619157E+03  0.93452205233E+02  0.16369589068E+03  0.80602619724E+02 0.  0.
          6    2    1    2  502    0 -0.92185605657E+01  0.13462925540E+03  0.11891477225E+04  0.12091469827E+04  0.17249377227E+03 0.  0.
         24    2    5    5    0    0 -0.42339302651E+02  0.10260472049E+03  0.11012223824E+04  0.11097713829E+04  0.81126084743E+02 0.  0.
          2    1    6    6  501    0 -0.22998659978E+02  0.35125704674E+02  0.14446364301E+03  0.15044101050E+03  0.00000000000E+00 0. -1.
         -1    1    6    6    0  501 -0.19340642674E+02  0.67479015821E+02  0.95675873941E+03  0.95933037243E+03  0.00000000000E+00 0.  1.
          5    1    5    5  502    0  0.33120742086E+02  0.32024534904E+02  0.87925340108E+02  0.99375599747E+02  0.47000000000E+01 0. -1.
         13    1    4    4    0    0  0.30623147465E+02 -0.53137426160E+02  0.15660774848E+02  0.63297891658E+02  0.00000000000E+00 0. -1.
        -14    1    4    4    0    0 -0.32712593356E+02 -0.54388765406E+02  0.77791430385E+02  0.10039799902E+03  0.00000000000E+00 0.  1.
         -5    1    3    3    0  504  0.11308006456E+02 -0.27103063832E+02  0.19916202645E+03  0.20137042946E+03  0.47000000000E+01 0.  1.
<mgrwt>
<rscale>  2 0.21882751E+03</rscale>
<asrwt>0</asrwt>
<pdfrwt beam="1">  1       21 0.23507498E+00 0.21900712E+03</pdfrwt>
<pdfrwt beam="2">  1       21 0.71116434E-02 0.21900712E+03</pdfrwt>
<totfact> 0.11728906E+04</totfact>
</mgrwt>
</event>
<event>
12    1  0.2791583E-001  0.1886852E+03  0.7546771E-02  0.1159727E+00
         21   -1    0    0  502  503  0.00000000000E+00  0.00000000000E+00  0.22118553256E+03  0.22118553256E+03  0.00000000000E+00 0. -1.
         21   -1    0    0  503  504 -0.00000000000E+00 -0.00000000000E+00 -0.16074681685E+03  0.16074681685E+03  0.00000000000E+00 0.  1.
         -6    2    1    2    0  504  0.50447897611E+02  0.55082133965E+02  0.26450123290E+02  0.19053004429E+03  0.17327162751E+03 0.  0.
        -24    2    3    3    0    0  0.42010509286E+02  0.49091221053E+02 -0.48155491107E+02  0.11506370571E+03  0.82133270804E+02 0.  0.
          6    2    1    2  502    0 -0.50447897611E+02 -0.55082133965E+02  0.33988592421E+02  0.19140230512E+03  0.17291785950E+03 0.  0.
         24    2    5    5    0    0 -0.55367993342E+02 -0.10181670652E+03  0.21924288725E+02  0.14265843332E+03  0.80240250162E+02 0.  0.
          4    1    6    6  501    0 -0.54094610185E+02 -0.39564079254E+02  0.39712929771E+02  0.77901604665E+02  0.00000000000E+00 0. -1.
         -3    1    6    6    0  501 -0.12733831566E+01 -0.62252627271E+02 -0.17788641047E+02  0.64756828652E+02  0.00000000000E+00 0.  1.
          5    1    5    5  502    0  0.49200957305E+01  0.46734572560E+02  0.12064303696E+02  0.48743871799E+02  0.47000000000E+01 0. -1.
         11    1    4    4    0    0  0.28882103687E+02  0.67702769401E+02 -0.15451543458E+02  0.75210312412E+02  0.00000000000E+00 0. -1.
        -12    1    4    4    0    0  0.13128405599E+02 -0.18611548348E+02 -0.32703947649E+02  0.39853393297E+02  0.00000000000E+00 0.  1.
         -5    1    3    3    0  504  0.84373883254E+01  0.59909129124E+01  0.74605614397E+02  0.75466338581E+02  0.47000000000E+01 0.  1.
<mgrwt>
<rscale>  2 0.18860390E+03</rscale>
<asrwt>0</asrwt>
<pdfrwt beam="1">  1       21 0.34028543E-01 0.18868516E+03</pdfrwt>
<pdfrwt beam="2">  1       21 0.24730280E-01 0.18868516E+03</pdfrwt>
<totfact> 0.12884453E+05</totfact>
</mgrwt>
</event>
<event>
12    1  0.2791583E-001  0.1827605E+03  0.7546771E-02  0.1166214E+00
         21   -1    0    0  502  503  0.00000000000E+00  0.00000000000E+00  0.34641214182E+03  0.34641214182E+03  0.00000000000E+00 0.  1.
         21   -1    0    0  503  504 -0.00000000000E+00 -0.00000000000E+00 -0.18928838477E+03  0.18928838477E+03  0.00000000000E+00 0.  1.
         -6    2    1    2    0  504  0.51151998916E+02  0.34656444411E+02 -0.11088122019E+03  0.21376632033E+03  0.17199941449E+03 0.  0.
        -24    2    3    3    0    0 -0.80558573988E+01  0.42925746758E+02 -0.29989659305E+01  0.90337707789E+02  0.79021459609E+02 0.  0.
          6    2    1    2  502    0 -0.51151998916E+02 -0.34656444411E+02  0.26800497723E+03  0.32193420625E+03  0.16732414411E+03 0.  0.
         24    2    5    5    0    0  0.48326166464E+01 -0.25226713399E+02  0.24683792692E+03  0.26116142431E+03  0.81342400544E+02 0.  0.
          4    1    6    6  501    0  0.22018879072E+02  0.21992982841E+02  0.58835097949E+02  0.66558929382E+02  0.00000000000E+00 0. -1.
         -3    1    6    6    0  501 -0.17186262426E+02 -0.47219696239E+02  0.18800282897E+03  0.19460249492E+03  0.00000000000E+00 0.  1.
          5    1    5    5  502    0 -0.55984615562E+02 -0.94297310120E+01  0.21167050315E+02  0.60772781947E+02  0.47000000000E+01 0. -1.
         11    1    4    4    0    0  0.31406251659E+02  0.33053476611E+02  0.11722385832E+02  0.47077587969E+02  0.00000000000E+00 0. -1.
        -12    1    4    4    0    0 -0.39462109058E+02  0.98722701465E+01 -0.14721351763E+02  0.43260119820E+02  0.00000000000E+00 0.  1.
         -5    1    3    3    0  504  0.59207856315E+02 -0.82693023470E+01 -0.10788225426E+03  0.12342861254E+03  0.47000000000E+01 0.  1.
<mgrwt>
<rscale>  2 0.18165220E+03</rscale>
<asrwt>0</asrwt>
<pdfrwt beam="1">  1       21 0.53294175E-01 0.18276048E+03</pdfrwt>
<pdfrwt beam="2">  1       21 0.29121290E-01 0.18276048E+03</pdfrwt>
<totfact> 0.37828532E+04</totfact>
</mgrwt>
</event>
<event>
12    1  0.2791583E-001  0.2138776E+03  0.7546771E-02  0.1138934E+00
         21   -1    0    0  502  503  0.00000000000E+00  0.00000000000E+00  0.11514834309E+03  0.11514834309E+03  0.00000000000E+00 0. -1.
         21   -1    0    0  503  504 -0.00000000000E+00 -0.00000000000E+00 -0.54186329421E+03  0.54186329421E+03  0.00000000000E+00 0. -1.
         -6    2    1    2    0  504 -0.10728759994E+03 -0.54559111680E+02 -0.40665243136E+02  0.21567501327E+03  0.17428345757E+03 0.  0.
        -24    2    3    3    0    0 -0.33430615520E+02 -0.34626640205E+02 -0.85712612333E+02  0.12677330891E+03  0.80051294021E+02 0.  0.
          6    2    1    2  502    0  0.10728759994E+03  0.54559111680E+02 -0.38604970799E+03  0.44133662403E+03  0.17679454998E+03 0.  0.
         24    2    5    5    0    0  0.47807641760E+02  0.53885219046E+02 -0.93629322796E+02  0.14289049617E+03  0.80386916639E+02 0.  0.
          4    1    6    6  501    0  0.52403894293E+02  0.26035557225E+01 -0.66457889421E+02  0.84673476992E+02  0.00000000000E+00 0. -1.
         -3    1    6    6    0  501 -0.45962525330E+01  0.51281663324E+02 -0.27171433375E+02  0.58217019180E+02  0.00000000000E+00 0.  1.
          5    1    5    5  502    0  0.59479958177E+02  0.67389263377E+00 -0.29242038519E+03  0.29844612786E+03  0.47000000000E+01 0. -1.
         13    1    4    4    0    0 -0.33920210972E+02 -0.17231645167E+02  0.12697030072E+01  0.38067341032E+02  0.00000000000E+00 0. -1.
        -14    1    4    4    0    0  0.48959545228E+00 -0.17394995037E+02 -0.86982315340E+02  0.88705967882E+02  0.00000000000E+00 0.  1.
         -5    1    3    3    0  504 -0.73856984418E+02 -0.19932471476E+02  0.45047369197E+02  0.88901704359E+02  0.47000000000E+01 0.  1.
<mgrwt>
<rscale>  2 0.21335799E+03</rscale>
<asrwt>0</asrwt>
<pdfrwt beam="1">  1       21 0.17715130E-01 0.21387763E+03</pdfrwt>
<pdfrwt beam="2">  1       21 0.83363584E-01 0.21387763E+03</pdfrwt>
<totfact> 0.35814330E+04</totfact>
</mgrwt>
</event>
<event>
12    1  0.2791583E-001  0.3287568E+03  0.7546771E-02  0.1071884E+00
         21   -1    0    0  502  503  0.00000000000E+00  0.00000000000E+00  0.53045495627E+03  0.53045495627E+03  0.00000000000E+00 0. -1.
         21   -1    0    0  503  504 -0.00000000000E+00 -0.00000000000E+00 -0.20324316856E+03  0.20324316856E+03  0.00000000000E+00 0.  1.
         -6    2    1    2    0  504 -0.40052461289E+02 -0.27432530232E+03  0.14356891238E+03  0.35712705817E+03  0.17340453259E+03 0.  0.
        -24    2    3    3    0    0 -0.39993977097E+02 -0.10249104396E+03  0.12331938476E+03  0.18403994387E+03  0.80988258314E+02 0.  0.
          6    2    1    2  502    0  0.40052461289E+02  0.27432530232E+03  0.18364287533E+03  0.37657106667E+03  0.17669887221E+03 0.  0.
         24    2    5    5    0    0 -0.93504169002E+01  0.44927038875E+02  0.28527135198E+02  0.95239961946E+02  0.78428207876E+02 0.  0.
          4    1    6    6  501    0  0.32843678747E+02  0.61885545222E+01  0.13297082360E+02  0.35969679453E+02  0.00000000000E+00 0. -1.
         -3    1    6    6    0  501 -0.42194095647E+02  0.38738484352E+02  0.15230052838E+02  0.59270282493E+02  0.00000000000E+00 0.  1.
          5    1    5    5  502    0  0.49402878189E+02  0.22939826345E+03  0.15511574013E+03  0.28133110472E+03  0.47000000000E+01 0. -1.
         11    1    4    4    0    0  0.82904966563E+01  0.56649407188E+01  0.34669552165E+02  0.36094344923E+02  0.00000000000E+00 0. -1.
        -12    1    4    4    0    0 -0.48284473753E+02 -0.10815598468E+03  0.88649832597E+02  0.14794559894E+03  0.00000000000E+00 0.  1.
         -5    1    3    3    0  504 -0.58484191775E-01 -0.17183425836E+03  0.20249527616E+02  0.17308711430E+03  0.47000000000E+01 0.  1.
<mgrwt>
<rscale>  2 0.32831625E+03</rscale>
<asrwt>0</asrwt>
<pdfrwt beam="1">  1       21 0.81608455E-01 0.32875684E+03</pdfrwt>
<pdfrwt beam="2">  1       21 0.31268180E-01 0.32875684E+03</pdfrwt>
<totfact> 0.12036565E+04</totfact>
</mgrwt>
</event>
<event>
12    1  0.2791583E-001  0.2413209E+03  0.7546771E-02  0.1119285E+00
         21   -1    0    0  502  503  0.00000000000E+00  0.00000000000E+00  0.20378966414E+03  0.20378966414E+03  0.00000000000E+00 0.  1.
         21   -1    0    0  503  504 -0.00000000000E+00 -0.00000000000E+00 -0.28349594704E+03  0.28349594704E+03  0.00000000000E+00 0. -1.
         -6    2    1    2    0  504  0.16760966610E+03 -0.89977881850E+01 -0.48309254497E+02  0.24393083731E+03  0.17027774065E+03 0.  0.
        -24    2    3    3    0    0  0.15298287630E+03  0.28276509680E+02 -0.79855847389E+02  0.19273910181E+03  0.81043713890E+02 0.  0.
          6    2    1    2  502    0 -0.16760966610E+03  0.89977881850E+01 -0.31397028401E+02  0.24335477387E+03  0.17338342542E+03 0.  0.
         24    2    5    5    0    0 -0.16970510638E+03  0.13940099460E+02  0.22159477108E+02  0.18932509135E+03  0.79742073499E+02 0.  0.
          2    1    6    6  501    0 -0.17094222179E+03  0.27855323914E+02  0.15618993651E+02  0.17389972750E+03  0.00000000000E+00 0. -1.
         -1    1    6    6    0  501  0.12371154144E+01 -0.13915224453E+02  0.65404834570E+01  0.15425363853E+02  0.00000000000E+00 0.  1.
          5    1    5    5  502    0  0.20954402794E+01 -0.49423112753E+01 -0.53556505510E+02  0.54029682519E+02  0.47000000000E+01 0. -1.
         11    1    4    4    0    0  0.14989327640E+03  0.10907503299E+02 -0.50606163797E+02  0.15858105736E+03  0.00000000000E+00 0. -1.
        -12    1    4    4    0    0  0.30895999005E+01  0.17369006381E+02 -0.29249683592E+02  0.34158044447E+02  0.00000000000E+00 0.  1.
         -5    1    3    3    0  504  0.14626789793E+02 -0.37274297865E+02  0.31546592892E+02  0.51191735506E+02  0.47000000000E+01 0.  1.
<mgrwt>
<rscale>  2 0.24076356E+03</rscale>
<asrwt>0</asrwt>
<pdfrwt beam="1">  1       21 0.31352256E-01 0.24132089E+03</pdfrwt>
<pdfrwt beam="2">  1       21 0.43614761E-01 0.24132089E+03</pdfrwt>
<totfact> 0.48309062E+04</totfact>
</mgrwt>
</event>
<event>
12    1  0.2791583E-001  0.2195609E+03  0.7546771E-02  0.1134287E+00
         21   -1    0    0  502  503  0.00000000000E+00  0.00000000000E+00  0.74452555091E+03  0.74452555091E+03  0.00000000000E+00 0. -1.
         21   -1    0    0  503  504 -0.00000000000E+00 -0.00000000000E+00 -0.11028494288E+03  0.11028494288E+03  0.00000000000E+00 0. -1.
         -6    2    1    2    0  504 -0.12818584644E+03  0.45373246554E+02  0.41948105704E+02  0.22313224488E+03  0.17186626313E+03 0.  0.
        -24    2    3    3    0    0 -0.13041959464E+03 -0.12459984395E+02  0.54986450223E+02  0.16361955160E+03  0.81137698278E+02 0.  0.
          6    2    1    2  502    0  0.12818584644E+03 -0.45373246554E+02  0.59229250232E+03  0.63167824891E+03  0.17238520559E+03 0.  0.
         24    2    5    5    0    0  0.97675489392E+02 -0.86573832482E+02  0.33167757524E+03  0.36602697301E+03  0.83247830936E+02 0.  0.
          4    1    6    6  501    0  0.10840490475E+03 -0.92075073233E+02  0.29669778324E+03  0.32902738041E+03  0.00000000000E+00 0. -1.
         -3    1    6    6    0  501 -0.10729415357E+02  0.55012407507E+01  0.34979792009E+02  0.36999592602E+02  0.00000000000E+00 0.  1.
          5    1    5    5  502    0  0.30510357050E+02  0.41200585928E+02  0.26061492708E+03  0.26565127589E+03  0.47000000000E+01 0. -1.
         13    1    4    4    0    0 -0.10958946965E+03  0.10362302563E+02  0.68760777453E+02  0.12978934351E+03  0.00000000000E+00 0. -1.
        -14    1    4    4    0    0 -0.20830124990E+02 -0.22822286958E+02 -0.13774327230E+02  0.33830208095E+02  0.00000000000E+00 0.  1.
         -5    1    3    3    0  504  0.22337481973E+01  0.57833230950E+02 -0.13038344518E+02  0.59512693275E+02  0.47000000000E+01 0.  1.
<mgrwt>
<rscale>  2 0.21945906E+03</rscale>
<asrwt>0</asrwt>
<pdfrwt beam="1">  1       21 0.11454239E+00 0.21956093E+03</pdfrwt>
<pdfrwt beam="2">  1       21 0.16966915E-01 0.21956093E+03</pdfrwt>
<totfact> 0.18225381E+04</totfact>
</mgrwt>
</event>
<event>
12    1  0.2791583E-001  0.1770670E+03  0.7546771E-02  0.1171610E+00
         21   -1    0    0  502  503  0.00000000000E+00  0.00000000000E+00  0.27598759144E+03  0.27598759144E+03  0.00000000000E+00 0.  1.
         21   -1    0    0  503  504 -0.00000000000E+00 -0.00000000000E+00 -0.11378708010E+03  0.11378708010E+03  0.00000000000E+00 0.  1.
         -6    2    1    2    0  504 -0.16336775061E+01  0.33721172766E+02  0.50922467196E+02  0.18064422913E+03  0.16999839252E+03 0.  0.
        -24    2    3    3    0    0  0.38855902253E+02  0.69415411242E+02  0.57658618483E+01  0.11011272032E+03  0.75916306251E+02 0.  0.
          6    2    1    2  502    0  0.16336775061E+01 -0.33721172766E+02  0.11127804415E+03  0.20913044240E+03  0.17381873442E+03 0.  0.
         24    2    5    5    0    0  0.65184169343E+02 -0.25157344181E+02  0.10309615681E+03  0.14431503179E+03  0.72911884848E+02 0.  0.
          2    1    6    6  501    0  0.57928611300E+02 -0.28809966483E+02  0.30960964685E+02  0.71723911704E+02  0.00000000000E+00 0. -1.
         -1    1    6    6    0  501  0.72555580423E+01  0.36526223019E+01  0.72135192126E+02  0.72591120085E+02  0.00000000000E+00 0.  1.
          5    1    5    5  502    0 -0.63550491837E+02 -0.85638285852E+01  0.81818873383E+01  0.64815410615E+02  0.47000000000E+01 0. -1.
         13    1    4    4    0    0  0.37672678366E+02  0.61678913884E+02  0.34675963628E+02  0.80161970826E+02  0.00000000000E+00 0. -1.
        -14    1    4    4    0    0  0.11832238877E+01  0.77364973581E+01 -0.28910101780E+02  0.29950749491E+02  0.00000000000E+00 0.  1.
         -5    1    3    3    0  504 -0.40489579759E+02 -0.35694238476E+02  0.45156605347E+02  0.70531508817E+02  0.47000000000E+01 0.  1.
<mgrwt>
<rscale>  2 0.17612233E+03</rscale>
<asrwt>0</asrwt>
<pdfrwt beam="1">  1       21 0.42459629E-01 0.17706705E+03</pdfrwt>
<pdfrwt beam="2">  1       21 0.17505705E-01 0.17706705E+03</pdfrwt>
<totfact> 0.15851853E+05</totfact>
</mgrwt>
</event>
<event>
12    1  0.2791583E-001  0.2292065E+03  0.7546771E-02  0.1127215E+00
         21   -1    0    0  502  503  0.00000000000E+00  0.00000000000E+00  0.33689732194E+03  0.33689732194E+03  0.00000000000E+00 0.  1.
         21   -1    0    0  503  504 -0.00000000000E+00 -0.00000000000E+00 -0.46677585814E+03  0.46677585814E+03  0.00000000000E+00 0.  1.
         -6    2    1    2    0  504 -0.12409261344E+03 -0.84999917806E+02 -0.39289063438E+03  0.45486114667E+03  0.17294984656E+03 0.  0.
        -24    2    3    3    0    0 -0.86684735095E+02  0.33302935354E+00 -0.12630015901E+03  0.17241888214E+03  0.79133978451E+02 0.  0.
          6    2    1    2  502    0  0.12409261344E+03  0.84999917806E+02  0.26301209818E+03  0.34881203341E+03  0.17283086566E+03 0.  0.
         24    2    5    5    0    0  0.10353468504E+03  0.19985842147E+02  0.24472356450E+03  0.27805880792E+03  0.79424257927E+02 0.  0.
          4    1    6    6  501    0 -0.80503121915E+01 -0.10258405245E+02  0.49330886425E+02  0.51025275698E+02  0.00000000000E+00 0. -1.
         -3    1    6    6    0  501  0.11158499724E+03  0.30244247392E+02  0.19539267807E+03  0.22703353222E+03  0.00000000000E+00 0.  1.
          5    1    5    5  502    0  0.20557928398E+02  0.65014075659E+02  0.18288533689E+02  0.70753225497E+02  0.47000000000E+01 0. -1.
         13    1    4    4    0    0 -0.58369659513E+02 -0.25636422006E+02 -0.33582032133E+02  0.72055507542E+02  0.00000000000E+00 0. -1.
        -14    1    4    4    0    0 -0.28315075582E+02  0.25969451360E+02 -0.92718126880E+02  0.10036337460E+03  0.00000000000E+00 0.  1.
         -5    1    3    3    0  504 -0.37407878346E+02 -0.85332947159E+02 -0.26659047537E+03  0.28244226453E+03  0.47000000000E+01 0.  1.
<mgrwt>
<rscale>  2 0.22918404E+03</rscale>
<asrwt>0</asrwt>
<pdfrwt beam="1">  1       21 0.51830358E-01 0.22920648E+03</pdfrwt>
<pdfrwt beam="2">  1       21 0.71811670E-01 0.22920648E+03</pdfrwt>
<totfact> 0.60297525E+03</totfact>
</mgrwt>
</event>
<event>
12    1  0.2791583E-001  0.1860722E+03  0.7546771E-02  0.1163085E+00
         21   -1    0    0  502  503  0.00000000000E+00  0.00000000000E+00  0.14688200621E+02  0.14688200621E+02  0.00000000000E+00 0.  1.
         21   -1    0    0  503  504 -0.00000000000E+00 -0.00000000000E+00 -0.23040958537E+04  0.23040958537E+04  0.00000000000E+00 0.  1.
         -6    2    1    2    0  504  0.11694378547E+02  0.54494898680E+02 -0.11678287587E+04  0.11818750462E+04  0.17291085239E+03 0.  0.
        -24    2    3    3    0    0 -0.10134157192E+01 -0.26114580674E+02 -0.46277588833E+03  0.47209971829E+03  0.89630479470E+02 0.  0.
          6    2    1    2  502    0 -0.11694378547E+02 -0.54494898680E+02 -0.11215788944E+04  0.11369090080E+04  0.17752865628E+03 0.  0.
         24    2    5    5    0    0 -0.42124536929E+02 -0.94425009250E+02 -0.74590841773E+03  0.75786968912E+03  0.85419781462E+02 0.  0.
          4    1    6    6  501    0 -0.43340678957E+02 -0.17258573438E+02 -0.43631971063E+03  0.43880652080E+03  0.00000000000E+00 0. -1.
         -3    1    6    6    0  501  0.12161420279E+01 -0.77166435812E+02 -0.30958870710E+03  0.31906316832E+03  0.00000000000E+00 0.  1.
          5    1    5    5  502    0  0.30430158382E+02  0.39930110570E+02 -0.37567047664E+03  0.37903931892E+03  0.47000000000E+01 0. -1.
         13    1    4    4    0    0 -0.24077563303E+02  0.25116775497E+02 -0.23134066210E+03  0.23394247884E+03  0.00000000000E+00 0. -1.
        -14    1    4    4    0    0  0.23064147584E+02 -0.51231356171E+02 -0.23143522623E+03  0.23815723945E+03  0.00000000000E+00 0.  1.
         -5    1    3    3    0  504  0.12707794266E+02  0.80609479355E+02 -0.70505287034E+03  0.70977532795E+03  0.47000000000E+01 0.  1.
<mgrwt>
<rscale>  2 0.18496221E+03</rscale>
<asrwt>0</asrwt>
<pdfrwt beam="1">  1       21 0.22597221E-02 0.18607223E+03</pdfrwt>
<pdfrwt beam="2">  1       21 0.35447645E+00 0.18607223E+03</pdfrwt>
<totfact> 0.16721548E+04</totfact>
</mgrwt>
</event>
<event>
12    1  0.2791583E-001  0.1930907E+03  0.7546771E-02  0.1156210E+00
         21   -1    0    0  502  503  0.00000000000E+00  0.00000000000E+00  0.20762154652E+03  0.20762154652E+03  0.00000000000E+00 0. -1.
         21   -1    0    0  503  504 -0.00000000000E+00 -0.00000000000E+00 -0.25729587855E+03  0.25729587855E+03  0.00000000000E+00 0. -1.
         -6    2    1    2    0  504 -0.64485862721E+02 -0.49377515387E+02 -0.15442566418E+03  0.24724744021E+03  0.17517832462E+03 0.  0.
        -24    2    3    3    0    0 -0.29419553556E+02 -0.24546273462E+02 -0.17680354574E+03  0.19857407792E+03  0.81878818769E+02 0.  0.
          6    2    1    2  502    0  0.64485862721E+02  0.49377515387E+02  0.10475133215E+03  0.21766998485E+03  0.17265808756E+03 0.  0.
         24    2    5    5    0    0  0.14706475155E+02  0.28732256900E+02  0.13128357378E+03  0.15741831292E+03  0.80643198738E+02 0.  0.
          2    1    6    6  501    0 -0.20851806348E+02  0.12868765528E+02  0.11069328131E+03  0.11337286043E+03  0.00000000000E+00 0. -1.
         -1    1    6    6    0  501  0.35558281502E+02  0.15863491372E+02  0.20590292465E+02  0.44045452497E+02  0.00000000000E+00 0.  1.
          5    1    5    5  502    0  0.49779387567E+02  0.20645258487E+02 -0.26532241621E+02  0.60251671927E+02  0.47000000000E+01 0. -1.
         11    1    4    4    0    0  0.60767213602E+01 -0.47282353601E+02 -0.82600122299E+02  0.95369427534E+02  0.00000000000E+00 0. -1.
        -12    1    4    4    0    0 -0.35496274916E+02  0.22736080139E+02 -0.94203423441E+02  0.10320465038E+03  0.00000000000E+00 0.  1.
         -5    1    3    3    0  504 -0.35066309165E+02 -0.24831241925E+02  0.22377881559E+02  0.48673362295E+02  0.47000000000E+01 0.  1.
<mgrwt>
<rscale>  2 0.19251726E+03</rscale>
<asrwt>0</asrwt>
<pdfrwt beam="1">  1       21 0.31941776E-01 0.19309068E+03</pdfrwt>
<pdfrwt beam="2">  1       21 0.39583981E-01 0.19309068E+03</pdfrwt>
<totfact> 0.57981477E+04</totfact>
</mgrwt>
</event>
<event>
12    1  0.2791583E-001  0.2557987E+03  0.7546771E-02  0.1110199E+00
         21   -1    0    0  502  503  0.00000000000E+00  0.00000000000E+00  0.15131096877E+03  0.15131096877E+03  0.00000000000E+00 0. -1.
         21   -1    0    0  503  504 -0.00000000000E+00 -0.00000000000E+00 -0.44628231169E+03  0.44628231169E+03  0.00000000000E+00 0.  1.
         -6    2    1    2    0  504  0.18157651417E+03 -0.47743520434E+02 -0.86176995551E+02  0.26992489241E+03  0.17373398844E+03 0.  0.
        -24    2    3    3    0    0  0.63171839884E+02 -0.50477184296E+02  0.11914603835E+02  0.11607044275E+03  0.82412149627E+02 0.  0.
          6    2    1    2  502    0 -0.18157651417E+03  0.47743520434E+02 -0.20879434736E+03  0.32766838805E+03  0.16888463161E+03 0.  0.
         24    2    5    5    0    0 -0.92002703942E+02 -0.35703796129E+02 -0.12346377075E+03  0.17836895930E+03  0.82661504716E+02 0.  0.
          4    1    6    6  501    0 -0.32785496798E+02 -0.30813163794E+02 -0.42812698121E+01  0.45195897319E+02  0.00000000000E+00 0. -1.
         -3    1    6    6    0  501 -0.59217207145E+02 -0.48906323357E+01 -0.11918250094E+03  0.13317306198E+03  0.00000000000E+00 0.  1.
          5    1    5    5  502    0 -0.89573810228E+02  0.83447316563E+02 -0.85330576612E+02  0.14929942875E+03  0.47000000000E+01 0. -1.
         11    1    4    4    0    0  0.60948350189E+02 -0.25703496575E+02 -0.25709925909E+02  0.70967396861E+02  0.00000000000E+00 0. -1.
        -12    1    4    4    0    0  0.22234896951E+01 -0.24773687720E+02  0.37624529744E+02  0.45103045886E+02  0.00000000000E+00 0.  1.
         -5    1    3    3    0  504  0.11840467429E+03  0.27336638615E+01 -0.98091599386E+02  0.15385444966E+03  0.47000000000E+01 0.  1.
<mgrwt>
<rscale>  2 0.25497762E+03</rscale>
<asrwt>0</asrwt>
<pdfrwt beam="1">  1       21 0.23278610E-01 0.25579870E+03</pdfrwt>
<pdfrwt beam="2">  1       21 0.68658818E-01 0.25579870E+03</pdfrwt>
<totfact> 0.32520831E+04</totfact>
</mgrwt>
</event>
<event>
12    1  0.2791583E-001  0.2033255E+03  0.7546771E-02  0.1147021E+00
         21   -1    0    0  502  503  0.00000000000E+00  0.00000000000E+00  0.22414506841E+03  0.22414506841E+03  0.00000000000E+00 0.  1.
         21   -1    0    0  503  504 -0.00000000000E+00 -0.00000000000E+00 -0.12860072150E+04  0.12860072150E+04  0.00000000000E+00 0.  1.
         -6    2    1    2    0  504 -0.51549568541E+02  0.93406269769E+02 -0.12297939744E+04  0.12464434523E+04  0.17275986562E+03 0.  0.
        -24    2    3    3    0    0 -0.11370784185E+01 -0.20535540164E+01 -0.76466842358E+03  0.76893129004E+03  0.80820917810E+02 0.  0.
          6    2    1    2  502    0  0.51549568541E+02 -0.93406269769E+02  0.16793182781E+03  0.26370883108E+03  0.17308714438E+03 0.  0.
         24    2    5    5    0    0  0.73603692424E+01 -0.92603326945E+02  0.40964248780E+02  0.12918676532E+03  0.79884913841E+02 0.  0.
          4    1    6    6  501    0  0.20413732066E+02 -0.37155735855E+02 -0.19019442507E+02  0.46465130551E+02  0.00000000000E+00 0. -1.
         -3    1    6    6    0  501 -0.13053362824E+02 -0.55447591090E+02  0.59983691287E+02  0.82721634771E+02  0.00000000000E+00 0.  1.
          5    1    5    5  502    0  0.44189199299E+02 -0.80294282398E+00  0.12696757903E+03  0.13452206576E+03  0.47000000000E+01 0. -1.
         11    1    4    4    0    0  0.24506748583E+02  0.87626652129E+00 -0.67939122544E+03  0.67983364566E+03  0.00000000000E+00 0. -1.
        -12    1    4    4    0    0 -0.25643827001E+02 -0.29298205377E+01 -0.85277198136E+02  0.89097644378E+02  0.00000000000E+00 0.  1.
         -5    1    3    3    0  504 -0.50412490122E+02  0.95459823786E+02 -0.46512555078E+03  0.47751216226E+03  0.47000000000E+01 0.  1.
<mgrwt>
<rscale>  2 0.20325581E+03</rscale>
<asrwt>0</asrwt>
<pdfrwt beam="1">  1       21 0.34483856E-01 0.20332548E+03</pdfrwt>
<pdfrwt beam="2">  1       21 0.19784726E+00 0.20332548E+03</pdfrwt>
<totfact> 0.11104542E+03</totfact>
</mgrwt>
</event>
<event>
12    1  0.2791583E-001  0.2076266E+03  0.7546771E-02  0.1143718E+00
         21   -1    0    0  502  503  0.00000000000E+00  0.00000000000E+00  0.28782227993E+03  0.28782227993E+03  0.00000000000E+00 0. -1.
         21   -1    0    0  503  504 -0.00000000000E+00 -0.00000000000E+00 -0.16867623424E+03  0.16867623424E+03  0.00000000000E+00 0. -1.
         -6    2    1    2    0  504 -0.10123920365E+03 -0.49961882198E+02 -0.18836632927E+02  0.20720349592E+03  0.17272204246E+03 0.  0.
        -24    2    3    3    0    0 -0.29681138163E+02 -0.88259979649E+02 -0.22254878715E+02  0.12583350508E+03  0.81657806756E+02 0.  0.
          6    2    1    2  502    0  0.10123920365E+03  0.49961882198E+02  0.13798267862E+03  0.24929501825E+03  0.17425045337E+03 0.  0.
         24    2    5    5    0    0  0.14545872863E+02  0.27170886581E+02  0.86345964973E+00  0.85408065461E+02  0.79648933378E+02 0.  0.
          4    1    6    6  501    0  0.17608071894E+02 -0.23808090320E+02  0.13881412047E+02  0.32704173448E+02  0.00000000000E+00 0. -1.
         -3    1    6    6    0  501 -0.30621990310E+01  0.50978976900E+02 -0.13017952398E+02  0.52703892013E+02  0.00000000000E+00 0.  1.
          5    1    5    5  502    0  0.86693330783E+02  0.22790995618E+02  0.13711921898E+03  0.16388695279E+03  0.47000000000E+01 0. -1.
         13    1    4    4    0    0 -0.53027228008E+02 -0.38028239795E+02 -0.26164556057E+02  0.70303754706E+02  0.00000000000E+00 0. -1.
        -14    1    4    4    0    0  0.23346089845E+02 -0.50231739854E+02  0.39096773424E+01  0.55529750375E+02  0.00000000000E+00 0.  1.
         -5    1    3    3    0  504 -0.71558065484E+02  0.38298097451E+02  0.34182457882E+01  0.81369990834E+02  0.47000000000E+01 0.  1.
<mgrwt>
<rscale>  2 0.20730555E+03</rscale>
<asrwt>0</asrwt>
<pdfrwt beam="1">  1       21 0.44280351E-01 0.20762656E+03</pdfrwt>
<pdfrwt beam="2">  1       21 0.25950190E-01 0.20762656E+03</pdfrwt>
<totfact> 0.68618448E+04</totfact>
</mgrwt>
</event>
<event>
12    1  0.2791583E-001  0.2541054E+03  0.7546771E-02  0.1111209E+00
         21   -1    0    0  502  503  0.00000000000E+00  0.00000000000E+00  0.26357350521E+03  0.26357350521E+03  0.00000000000E+00 0.  1.
         21   -1    0    0  503  504 -0.00000000000E+00 -0.00000000000E+00 -0.31497956606E+03  0.31497956606E+03  0.00000000000E+00 0.  1.
         -6    2    1    2    0  504  0.14479239302E+03  0.11704628206E+03 -0.16476212926E+03  0.30031013862E+03  0.16844865953E+03 0.  0.
        -24    2    3    3    0    0  0.83278644396E+02  0.92410092709E+02 -0.34401472597E+02  0.15399925761E+03  0.84008048308E+02 0.  0.
          6    2    1    2  502    0 -0.14479239302E+03 -0.11704628206E+03  0.11335606842E+03  0.27824293264E+03  0.17293022321E+03 0.  0.
         24    2    5    5    0    0 -0.86406063511E+02 -0.14673624329E+02  0.10699499145E+03  0.16012571195E+03  0.80690720462E+02 0.  0.
          2    1    6    6  501    0  0.11970895639E+02 -0.10074595718E+02  0.34355755396E+02  0.37750731782E+02  0.00000000000E+00 0. -1.
         -1    1    6    6    0  501 -0.98376959150E+02 -0.45990286110E+01  0.72639236054E+02  0.12237498016E+03  0.00000000000E+00 0.  1.
          5    1    5    5  502    0 -0.58386329512E+02 -0.10237265773E+03  0.63610769656E+01  0.11811722070E+03  0.47000000000E+01 0. -1.
         11    1    4    4    0    0  0.40876566429E+02  0.36581785980E+00  0.11909269625E+02  0.42577672656E+02  0.00000000000E+00 0. -1.
        -12    1    4    4    0    0  0.42402077966E+02  0.92044274849E+02 -0.46310742222E+02  0.11142158495E+03  0.00000000000E+00 0.  1.
         -5    1    3    3    0  504  0.61513748628E+02  0.24636189353E+02 -0.13036065667E+03  0.14631088101E+03  0.47000000000E+01 0.  1.
<mgrwt>
<rscale>  2 0.25334484E+03</rscale>
<asrwt>0</asrwt>
<pdfrwt beam="1">  1       21 0.40549770E-01 0.25410535E+03</pdfrwt>
<pdfrwt beam="2">  1       21 0.48458395E-01 0.25410535E+03</pdfrwt>
<totfact> 0.23074685E+04</totfact>
</mgrwt>
</event>
